  42  42   1   0
  0.2282521E+02  0.4004839E-09  0.4696090E-09  0.5097328E-08  0.5000000E-15
   1.0000000000000000E-004
  CAR 
 S11-ra110-s3-32-he-19                   
     11.24860645    -13.59634549  301      0.84808185      1.00000000
    -13.596  0.0000E+00  0.0000E+00  0.0000E+00  0.0000E+00
    -13.514  0.0000E+00  0.0000E+00  0.0000E+00  0.0000E+00
    -13.431  0.0000E+00  0.0000E+00  0.0000E+00  0.0000E+00
    -13.348  0.0000E+00  0.0000E+00  0.0000E+00  0.0000E+00
    -13.265 -0.7554E-30  0.0000E+00 -0.6256E-31  0.0000E+00
    -13.182 -0.7806E-27 -0.1493E-27 -0.6471E-28 -0.1237E-28
    -13.099 -0.4680E-24 -0.9793E-25 -0.3883E-25 -0.8123E-26
    -13.017 -0.1993E-21 -0.4562E-22 -0.1655E-22 -0.3786E-23
    -12.934 -0.6034E-19 -0.1510E-19 -0.5014E-20 -0.1254E-20
    -12.851 -0.1298E-16 -0.3553E-17 -0.1080E-17 -0.2955E-18
    -12.768 -0.1967E-14 -0.5941E-15 -0.1640E-15 -0.4949E-16
    -12.685 -0.2089E-12 -0.6836E-13 -0.1746E-13 -0.5711E-14
    -12.603 -0.1604E-10 -0.5743E-11 -0.1346E-11 -0.4813E-12
    -12.520 -0.8736E-09 -0.3419E-09 -0.7369E-10 -0.2880E-10
    -12.437 -0.3370E-07 -0.1442E-07 -0.2864E-08 -0.1223E-08
    -12.354 -0.9189E-06 -0.4300E-06 -0.7896E-07 -0.3683E-07
    -12.271 -0.1766E-04 -0.9038E-05 -0.1541E-05 -0.7853E-06
    -12.188 -0.2379E-03 -0.1333E-03 -0.2124E-04 -0.1183E-04
    -12.106 -0.2226E-02 -0.1369E-02 -0.2056E-03 -0.1252E-03
    -12.023 -0.1423E-01 -0.9638E-02 -0.1384E-02 -0.9233E-03
    -11.940 -0.5985E-01 -0.4514E-01 -0.6340E-02 -0.4662E-02
    -11.857 -0.1498E+00 -0.1301E+00 -0.1874E-01 -0.1544E-01
    -11.774 -0.1300E+00 -0.1670E+00 -0.2951E-01 -0.2927E-01
    -11.692  0.4565E+00  0.2472E+00  0.8289E-02 -0.8797E-02
    -11.609  0.1918E+01  0.1544E+01  0.1671E+00  0.1191E+00
    -11.526  0.3497E+01  0.3238E+01  0.4567E+00  0.3872E+00
    -11.443  0.3742E+01  0.3865E+01  0.7666E+00  0.7073E+00
    -11.360  0.2392E+01  0.2765E+01  0.9647E+00  0.9362E+00
    -11.277  0.7627E+00  0.1054E+01  0.1028E+01  0.1023E+01
    -11.195 -0.5902E-01  0.3283E-01  0.1023E+01  0.1026E+01
    -11.112 -0.1716E+00 -0.1812E+00  0.1009E+01  0.1011E+01
    -11.029 -0.8080E-01 -0.1001E+00  0.1002E+01  0.1003E+01
    -10.946 -0.2132E-01 -0.2909E-01  0.1000E+01  0.1001E+01
    -10.863 -0.3626E-02 -0.5357E-02  0.1000E+01  0.1000E+01
    -10.781 -0.4163E-03 -0.6619E-03  0.1000E+01  0.1000E+01
    -10.698 -0.3295E-04 -0.5620E-04  0.1000E+01  0.1000E+01
    -10.615 -0.1818E-05 -0.3319E-05  0.1000E+01  0.1000E+01
    -10.532 -0.7032E-07 -0.1374E-06  0.1000E+01  0.1000E+01
    -10.449 -0.1916E-08 -0.4002E-08  0.1000E+01  0.1000E+01
    -10.367 -0.3683E-10 -0.8224E-10  0.1000E+01  0.1000E+01
    -10.284 -0.5006E-12 -0.1195E-11  0.1000E+01  0.1000E+01
    -10.201 -0.4915E-14 -0.1236E-13  0.1000E+01  0.1000E+01
    -10.118  0.0000E+00  0.0000E+00  0.1000E+01  0.1000E+01
    -10.035  0.0000E+00  0.0000E+00  0.1000E+01  0.1000E+01
     -9.952  0.0000E+00  0.0000E+00  0.1000E+01  0.1000E+01
     -9.870  0.0000E+00  0.0000E+00  0.1000E+01  0.1000E+01
     -9.787  0.0000E+00  0.0000E+00  0.1000E+01  0.1000E+01
     -9.704  0.0000E+00  0.0000E+00  0.1000E+01  0.1000E+01
     -9.621  0.0000E+00  0.0000E+00  0.1000E+01  0.1000E+01
     -9.538  0.0000E+00  0.0000E+00  0.1000E+01  0.1000E+01
     -9.456  0.0000E+00  0.0000E+00  0.1000E+01  0.1000E+01
     -9.373  0.0000E+00  0.0000E+00  0.1000E+01  0.1000E+01
     -9.290  0.0000E+00  0.0000E+00  0.1000E+01  0.1000E+01
     -9.207  0.0000E+00  0.0000E+00  0.1000E+01  0.1000E+01
     -9.124  0.0000E+00  0.0000E+00  0.1000E+01  0.1000E+01
     -9.041  0.0000E+00  0.0000E+00  0.1000E+01  0.1000E+01
     -8.959 -0.3490E-28  0.0000E+00  0.1000E+01  0.1000E+01
     -8.876 -0.2252E-25  0.0000E+00  0.1000E+01  0.1000E+01
     -8.793 -0.1030E-22 -0.2616E-28  0.1000E+01  0.1000E+01
     -8.710 -0.3337E-20 -0.1712E-25  0.1000E+01  0.1000E+01
     -8.627 -0.7651E-18 -0.7941E-23  0.1000E+01  0.1000E+01
     -8.545 -0.1241E-15 -0.2607E-20  0.1000E+01  0.1000E+01
     -8.462 -0.1379E-13 -0.6059E-18  0.1000E+01  0.1000E+01
     -8.379 -0.1112E-11 -0.9962E-16  0.1000E+01  0.1000E+01
     -8.296 -0.6327E-10 -0.1121E-13  0.1000E+01  0.1000E+01
     -8.213 -0.2533E-08 -0.9172E-12  0.1000E+01  0.1000E+01
     -8.130 -0.7118E-07 -0.5286E-10  0.1000E+01  0.1000E+01
     -8.048 -0.1398E-05 -0.2145E-08  0.1000E+01  0.1000E+01
     -7.965 -0.1909E-04 -0.6109E-07  0.1000E+01  0.1000E+01
     -7.882 -0.1792E-03 -0.1217E-05  0.1000E+01  0.1000E+01
     -7.799 -0.1136E-02 -0.1686E-04  0.9999E+00  0.1000E+01
     -7.716 -0.4688E-02 -0.1607E-03  0.9995E+00  0.1000E+01
     -7.634 -0.1151E-01 -0.1036E-02  0.9985E+00  0.9999E+00
     -7.551 -0.1124E-01 -0.4364E-02  0.9976E+00  0.9995E+00
     -7.468  0.2183E-01 -0.1102E-01  0.9994E+00  0.9986E+00
     -7.385  0.1015E+00 -0.1156E-01  0.1008E+01  0.9977E+00
     -7.302  0.2171E+00  0.1904E-01  0.1026E+01  0.9992E+00
     -7.219  0.3870E+00  0.9578E-01  0.1058E+01  0.1007E+01
     -7.137  0.6281E+00  0.2074E+00  0.1110E+01  0.1024E+01
     -7.054  0.8416E+00  0.3695E+00  0.1180E+01  0.1055E+01
     -6.971  0.9443E+00  0.6050E+00  0.1258E+01  0.1105E+01
     -6.888  0.1006E+01  0.8230E+00  0.1341E+01  0.1173E+01
     -6.805  0.1008E+01  0.9264E+00  0.1425E+01  0.1250E+01
     -6.723  0.8562E+00  0.9808E+00  0.1495E+01  0.1331E+01
     -6.640  0.7243E+00  0.9905E+00  0.1555E+01  0.1413E+01
     -6.557  0.8399E+00  0.8392E+00  0.1625E+01  0.1483E+01
     -6.474  0.1134E+01  0.6607E+00  0.1719E+01  0.1537E+01
     -6.391  0.1527E+01  0.7217E+00  0.1845E+01  0.1597E+01
     -6.308  0.2023E+01  0.9833E+00  0.2013E+01  0.1679E+01
     -6.226  0.2370E+01  0.1331E+01  0.2209E+01  0.1789E+01
     -6.143  0.2286E+01  0.1821E+01  0.2398E+01  0.1940E+01
     -6.060  0.1864E+01  0.2287E+01  0.2553E+01  0.2129E+01
     -5.977  0.1355E+01  0.2362E+01  0.2665E+01  0.2325E+01
     -5.894  0.9896E+00  0.2034E+01  0.2747E+01  0.2493E+01
     -5.812  0.1026E+01  0.1526E+01  0.2832E+01  0.2620E+01
     -5.729  0.1593E+01  0.1013E+01  0.2964E+01  0.2703E+01
     -5.646  0.2535E+01  0.7529E+00  0.3174E+01  0.2766E+01
     -5.563  0.3413E+01  0.9844E+00  0.3456E+01  0.2847E+01
     -5.480  0.3704E+01  0.1705E+01  0.3763E+01  0.2988E+01
     -5.398  0.3221E+01  0.2666E+01  0.4030E+01  0.3209E+01
     -5.315  0.2346E+01  0.3402E+01  0.4224E+01  0.3491E+01
     -5.232  0.1793E+01  0.3507E+01  0.4373E+01  0.3781E+01
     -5.149  0.2025E+01  0.2960E+01  0.4540E+01  0.4027E+01
     -5.066  0.2845E+01  0.2096E+01  0.4776E+01  0.4200E+01
     -4.983  0.3656E+01  0.1472E+01  0.5079E+01  0.4322E+01
     -4.901  0.4038E+01  0.1550E+01  0.5413E+01  0.4450E+01
     -4.818  0.3894E+01  0.2248E+01  0.5736E+01  0.4637E+01
     -4.735  0.3448E+01  0.3045E+01  0.6021E+01  0.4889E+01
     -4.652  0.3347E+01  0.3511E+01  0.6298E+01  0.5179E+01
     -4.569  0.4062E+01  0.3572E+01  0.6635E+01  0.5475E+01
     -4.487  0.5075E+01  0.3311E+01  0.7055E+01  0.5749E+01
     -4.404  0.5520E+01  0.2879E+01  0.7512E+01  0.5988E+01
     -4.321  0.5458E+01  0.2697E+01  0.7964E+01  0.6211E+01
     -4.238  0.5694E+01  0.3175E+01  0.8436E+01  0.6474E+01
     -4.155  0.6699E+01  0.4048E+01  0.8991E+01  0.6809E+01
     -4.072  0.8565E+01  0.4497E+01  0.9700E+01  0.7182E+01
     -3.990  0.1141E+02  0.4143E+01  0.1065E+02  0.7525E+01
     -3.907  0.1494E+02  0.3523E+01  0.1188E+02  0.7817E+01
     -3.824  0.1815E+02  0.3339E+01  0.1339E+02  0.8093E+01
     -3.741  0.2042E+02  0.3723E+01  0.1508E+02  0.8402E+01
     -3.658  0.2238E+02  0.4451E+01  0.1693E+02  0.8770E+01
     -3.576  0.2521E+02  0.5164E+01  0.1902E+02  0.9198E+01
     -3.493  0.2912E+02  0.5421E+01  0.2143E+02  0.9647E+01
     -3.410  0.3293E+02  0.5151E+01  0.2416E+02  0.1007E+02
     -3.327  0.3508E+02  0.4749E+01  0.2706E+02  0.1047E+02
     -3.244  0.3472E+02  0.4599E+01  0.2994E+02  0.1085E+02
     -3.161  0.3243E+02  0.4979E+01  0.3262E+02  0.1126E+02
     -3.079  0.2987E+02  0.6082E+01  0.3510E+02  0.1176E+02
     -2.996  0.2812E+02  0.7608E+01  0.3743E+02  0.1239E+02
     -2.913  0.2666E+02  0.8710E+01  0.3963E+02  0.1312E+02
     -2.830  0.2485E+02  0.8906E+01  0.4169E+02  0.1385E+02
     -2.747  0.2409E+02  0.8902E+01  0.4369E+02  0.1459E+02
     -2.665  0.2774E+02  0.9768E+01  0.4598E+02  0.1540E+02
     -2.582  0.3759E+02  0.1140E+02  0.4910E+02  0.1634E+02
     -2.499  0.4994E+02  0.1265E+02  0.5323E+02  0.1739E+02
     -2.416  0.5797E+02  0.1288E+02  0.5803E+02  0.1846E+02
     -2.333  0.5854E+02  0.1282E+02  0.6288E+02  0.1952E+02
     -2.250  0.5451E+02  0.1343E+02  0.6740E+02  0.2063E+02
     -2.168  0.5050E+02  0.1467E+02  0.7158E+02  0.2185E+02
     -2.085  0.4871E+02  0.1583E+02  0.7561E+02  0.2316E+02
     -2.002  0.4862E+02  0.1676E+02  0.7964E+02  0.2454E+02
     -1.919  0.4947E+02  0.1794E+02  0.8374E+02  0.2603E+02
     -1.836  0.5147E+02  0.1962E+02  0.8800E+02  0.2765E+02
     -1.754  0.5434E+02  0.2158E+02  0.9250E+02  0.2944E+02
     -1.671  0.5599E+02  0.2351E+02  0.9714E+02  0.3139E+02
     -1.588  0.5384E+02  0.2484E+02  0.1016E+03  0.3345E+02
     -1.505  0.4725E+02  0.2465E+02  0.1055E+03  0.3549E+02
     -1.422  0.3867E+02  0.2269E+02  0.1087E+03  0.3737E+02
     -1.340  0.3196E+02  0.1999E+02  0.1114E+03  0.3902E+02
     -1.257  0.2895E+02  0.1741E+02  0.1138E+03  0.4047E+02
     -1.174  0.2832E+02  0.1493E+02  0.1161E+03  0.4170E+02
     -1.091  0.2838E+02  0.1353E+02  0.1184E+03  0.4282E+02
     -1.008  0.2913E+02  0.1567E+02  0.1209E+03  0.4412E+02
     -0.925  0.3062E+02  0.2253E+02  0.1234E+03  0.4599E+02
     -0.843  0.3217E+02  0.3212E+02  0.1261E+03  0.4865E+02
     -0.760  0.3399E+02  0.4108E+02  0.1289E+03  0.5205E+02
     -0.677  0.3759E+02  0.4710E+02  0.1320E+03  0.5595E+02
     -0.594  0.4405E+02  0.4969E+02  0.1356E+03  0.6006E+02
     -0.511  0.5257E+02  0.4985E+02  0.1400E+03  0.6419E+02
     -0.429  0.6115E+02  0.4910E+02  0.1451E+03  0.6826E+02
     -0.346  0.6889E+02  0.4831E+02  0.1508E+03  0.7226E+02
     -0.263  0.7651E+02  0.4743E+02  0.1571E+03  0.7619E+02
     -0.180  0.8353E+02  0.4629E+02  0.1640E+03  0.8002E+02
     -0.097  0.8710E+02  0.4550E+02  0.1712E+03  0.8379E+02
     -0.014  0.8451E+02  0.4587E+02  0.1782E+03  0.8759E+02
      0.068  0.7543E+02  0.4707E+02  0.1845E+03  0.9149E+02
      0.151  0.6256E+02  0.4745E+02  0.1897E+03  0.9542E+02
      0.234  0.4999E+02  0.4602E+02  0.1938E+03  0.9923E+02
      0.317  0.4021E+02  0.4322E+02  0.1971E+03  0.1028E+03
      0.400  0.3363E+02  0.3928E+02  0.1999E+03  0.1061E+03
      0.482  0.3030E+02  0.3371E+02  0.2024E+03  0.1089E+03
      0.565  0.2984E+02  0.2722E+02  0.2049E+03  0.1111E+03
      0.648  0.3060E+02  0.2194E+02  0.2074E+03  0.1129E+03
      0.731  0.3096E+02  0.1894E+02  0.2100E+03  0.1145E+03
      0.814  0.3014E+02  0.1761E+02  0.2125E+03  0.1160E+03
      0.897  0.2710E+02  0.1704E+02  0.2147E+03  0.1174E+03
      0.979  0.2154E+02  0.1666E+02  0.2165E+03  0.1187E+03
      1.062  0.1554E+02  0.1636E+02  0.2178E+03  0.1201E+03
      1.145  0.1142E+02  0.1652E+02  0.2187E+03  0.1215E+03
      1.228  0.9073E+01  0.1721E+02  0.2195E+03  0.1229E+03
      1.311  0.7212E+01  0.1824E+02  0.2201E+03  0.1244E+03
      1.393  0.5582E+01  0.1993E+02  0.2206E+03  0.1261E+03
      1.476  0.4874E+01  0.2215E+02  0.2210E+03  0.1279E+03
      1.559  0.5284E+01  0.2398E+02  0.2214E+03  0.1299E+03
      1.642  0.6402E+01  0.2525E+02  0.2219E+03  0.1320E+03
      1.725  0.7699E+01  0.2700E+02  0.2226E+03  0.1342E+03
      1.808  0.8365E+01  0.3016E+02  0.2233E+03  0.1367E+03
      1.890  0.7823E+01  0.3455E+02  0.2239E+03  0.1396E+03
      1.973  0.6486E+01  0.3917E+02  0.2244E+03  0.1428E+03
      2.056  0.5219E+01  0.4335E+02  0.2249E+03  0.1464E+03
      2.139  0.4621E+01  0.4736E+02  0.2253E+03  0.1503E+03
      2.222  0.4859E+01  0.5184E+02  0.2257E+03  0.1546E+03
      2.304  0.5590E+01  0.5642E+02  0.2261E+03  0.1593E+03
      2.387  0.6298E+01  0.5948E+02  0.2266E+03  0.1642E+03
      2.470  0.6678E+01  0.6040E+02  0.2272E+03  0.1692E+03
      2.553  0.6534E+01  0.6138E+02  0.2277E+03  0.1743E+03
      2.636  0.6036E+01  0.6576E+02  0.2282E+03  0.1797E+03
      2.719  0.5877E+01  0.7432E+02  0.2287E+03  0.1859E+03
      2.801  0.6293E+01  0.8160E+02  0.2292E+03  0.1926E+03
      2.884  0.6698E+01  0.7952E+02  0.2298E+03  0.1992E+03
      2.967  0.6780E+01  0.6741E+02  0.2304E+03  0.2048E+03
      3.050  0.6814E+01  0.5308E+02  0.2309E+03  0.2092E+03
      3.133  0.6882E+01  0.4260E+02  0.2315E+03  0.2127E+03
      3.215  0.6912E+01  0.3527E+02  0.2321E+03  0.2157E+03
      3.298  0.7065E+01  0.2804E+02  0.2327E+03  0.2180E+03
      3.381  0.7298E+01  0.2038E+02  0.2333E+03  0.2197E+03
      3.464  0.7137E+01  0.1434E+02  0.2339E+03  0.2209E+03
      3.547  0.6275E+01  0.1149E+02  0.2344E+03  0.2218E+03
      3.629  0.5048E+01  0.1098E+02  0.2348E+03  0.2227E+03
      3.712  0.4127E+01  0.1071E+02  0.2351E+03  0.2236E+03
      3.795  0.3814E+01  0.9643E+01  0.2354E+03  0.2244E+03
      3.878  0.3963E+01  0.8386E+01  0.2358E+03  0.2251E+03
      3.961  0.4451E+01  0.7834E+01  0.2361E+03  0.2257E+03
      4.044  0.5223E+01  0.7854E+01  0.2366E+03  0.2264E+03
      4.126  0.5904E+01  0.7753E+01  0.2371E+03  0.2270E+03
      4.209  0.6044E+01  0.7536E+01  0.2376E+03  0.2277E+03
      4.292  0.5816E+01  0.7767E+01  0.2380E+03  0.2283E+03
      4.375  0.5653E+01  0.8431E+01  0.2385E+03  0.2290E+03
      4.458  0.5582E+01  0.8934E+01  0.2390E+03  0.2297E+03
      4.540  0.5667E+01  0.9056E+01  0.2394E+03  0.2305E+03
      4.623  0.6162E+01  0.9200E+01  0.2400E+03  0.2313E+03
      4.706  0.6757E+01  0.9585E+01  0.2405E+03  0.2321E+03
      4.789  0.6667E+01  0.9674E+01  0.2411E+03  0.2329E+03
      4.872  0.5792E+01  0.8943E+01  0.2415E+03  0.2336E+03
      4.955  0.5009E+01  0.7811E+01  0.2420E+03  0.2342E+03
      5.037  0.4929E+01  0.7053E+01  0.2424E+03  0.2348E+03
      5.120  0.5032E+01  0.6837E+01  0.2428E+03  0.2354E+03
      5.203  0.4838E+01  0.6739E+01  0.2432E+03  0.2359E+03
      5.286  0.4913E+01  0.6437E+01  0.2436E+03  0.2365E+03
      5.369  0.5632E+01  0.6298E+01  0.2441E+03  0.2370E+03
      5.451  0.6447E+01  0.6870E+01  0.2446E+03  0.2376E+03
      5.534  0.6885E+01  0.7875E+01  0.2452E+03  0.2382E+03
      5.617  0.6861E+01  0.8433E+01  0.2457E+03  0.2389E+03
      5.700  0.6412E+01  0.8210E+01  0.2463E+03  0.2396E+03
      5.783  0.6006E+01  0.7788E+01  0.2468E+03  0.2402E+03
      5.866  0.6112E+01  0.7815E+01  0.2473E+03  0.2409E+03
      5.948  0.6273E+01  0.8111E+01  0.2478E+03  0.2416E+03
      6.031  0.5796E+01  0.7971E+01  0.2483E+03  0.2422E+03
      6.114  0.4898E+01  0.7322E+01  0.2487E+03  0.2428E+03
      6.197  0.4332E+01  0.6868E+01  0.2490E+03  0.2434E+03
      6.280  0.4510E+01  0.6972E+01  0.2494E+03  0.2440E+03
      6.362  0.5203E+01  0.7187E+01  0.2498E+03  0.2446E+03
      6.445  0.5670E+01  0.7022E+01  0.2503E+03  0.2452E+03
      6.528  0.5415E+01  0.6653E+01  0.2508E+03  0.2457E+03
      6.611  0.4710E+01  0.6692E+01  0.2511E+03  0.2463E+03
      6.694  0.4000E+01  0.7421E+01  0.2515E+03  0.2469E+03
      6.777  0.3459E+01  0.8336E+01  0.2518E+03  0.2476E+03
      6.859  0.3263E+01  0.8515E+01  0.2520E+03  0.2483E+03
      6.942  0.3517E+01  0.7728E+01  0.2523E+03  0.2489E+03
      7.025  0.3938E+01  0.6746E+01  0.2527E+03  0.2495E+03
      7.108  0.4107E+01  0.6250E+01  0.2530E+03  0.2500E+03
      7.191  0.3806E+01  0.6213E+01  0.2533E+03  0.2505E+03
      7.273  0.3068E+01  0.6296E+01  0.2536E+03  0.2510E+03
      7.356  0.2266E+01  0.6095E+01  0.2537E+03  0.2515E+03
      7.439  0.1975E+01  0.5429E+01  0.2539E+03  0.2520E+03
      7.522  0.2399E+01  0.4722E+01  0.2541E+03  0.2524E+03
      7.605  0.3021E+01  0.4512E+01  0.2544E+03  0.2527E+03
      7.687  0.3063E+01  0.4653E+01  0.2546E+03  0.2531E+03
      7.770  0.2386E+01  0.4576E+01  0.2548E+03  0.2535E+03
      7.853  0.1618E+01  0.4197E+01  0.2549E+03  0.2539E+03
      7.936  0.1232E+01  0.3821E+01  0.2550E+03  0.2542E+03
      8.019  0.1078E+01  0.3437E+01  0.2551E+03  0.2545E+03
      8.102  0.9503E+00  0.2868E+01  0.2552E+03  0.2547E+03
      8.184  0.9609E+00  0.2195E+01  0.2553E+03  0.2549E+03
      8.267  0.1207E+01  0.1623E+01  0.2554E+03  0.2550E+03
      8.350  0.1495E+01  0.1287E+01  0.2555E+03  0.2551E+03
      8.433  0.1584E+01  0.1196E+01  0.2557E+03  0.2552E+03
      8.516  0.1466E+01  0.1291E+01  0.2558E+03  0.2553E+03
      8.598  0.1219E+01  0.1490E+01  0.2559E+03  0.2554E+03
      8.681  0.8757E+00  0.1607E+01  0.2559E+03  0.2556E+03
      8.764  0.5022E+00  0.1495E+01  0.2560E+03  0.2557E+03
      8.847  0.1980E+00  0.1200E+01  0.2560E+03  0.2558E+03
      8.930  0.2441E-01  0.8447E+00  0.2560E+03  0.2559E+03
      9.013 -0.2885E-01  0.5316E+00  0.2560E+03  0.2559E+03
      9.095 -0.2260E-01  0.3507E+00  0.2560E+03  0.2559E+03
      9.178 -0.8515E-02  0.2855E+00  0.2560E+03  0.2560E+03
      9.261 -0.1984E-02  0.2278E+00  0.2560E+03  0.2560E+03
      9.344 -0.3050E-03  0.1313E+00  0.2560E+03  0.2560E+03
      9.427 -0.3177E-04  0.4057E-01  0.2560E+03  0.2560E+03
      9.509 -0.2276E-05 -0.4009E-02  0.2560E+03  0.2560E+03
      9.592 -0.1131E-06 -0.1073E-01  0.2560E+03  0.2560E+03
      9.675 -0.3924E-08 -0.5466E-02  0.2560E+03  0.2560E+03
      9.758 -0.9535E-10 -0.1582E-02  0.2560E+03  0.2560E+03
      9.841 -0.1628E-11 -0.2953E-03  0.2560E+03  0.2560E+03
      9.924 -0.1944E-13 -0.3705E-04  0.2560E+03  0.2560E+03
     10.006 -0.1490E-15 -0.3184E-05  0.2560E+03  0.2560E+03
     10.089  0.0000E+00 -0.1893E-06  0.2560E+03  0.2560E+03
     10.172  0.0000E+00 -0.7833E-08  0.2560E+03  0.2560E+03
     10.255  0.0000E+00 -0.2267E-09  0.2560E+03  0.2560E+03
     10.338  0.0000E+00 -0.4600E-11  0.2560E+03  0.2560E+03
     10.420  0.0000E+00 -0.6569E-13  0.2560E+03  0.2560E+03
     10.503  0.0000E+00 -0.6703E-15  0.2560E+03  0.2560E+03
     10.586  0.0000E+00  0.0000E+00  0.2560E+03  0.2560E+03
     10.669  0.0000E+00  0.0000E+00  0.2560E+03  0.2560E+03
     10.752  0.0000E+00  0.0000E+00  0.2560E+03  0.2560E+03
     10.835  0.0000E+00  0.0000E+00  0.2560E+03  0.2560E+03
     10.917  0.0000E+00  0.0000E+00  0.2560E+03  0.2560E+03
     11.000  0.0000E+00  0.0000E+00  0.2560E+03  0.2560E+03
     11.083  0.0000E+00  0.0000E+00  0.2560E+03  0.2560E+03
     11.166  0.0000E+00  0.0000E+00  0.2560E+03  0.2560E+03
     11.249  0.0000E+00  0.0000E+00  0.2560E+03  0.2560E+03
     11.24860645    -13.59634549  301      0.84808185      1.00000000
    -13.596  0.0000E+00  0.0000E+00  0.0000E+00  0.0000E+00  0.0000E+00  0.0000E+00
    -13.514  0.0000E+00  0.0000E+00  0.0000E+00  0.0000E+00  0.0000E+00  0.0000E+00
    -13.431  0.0000E+00  0.0000E+00  0.0000E+00  0.0000E+00  0.0000E+00  0.0000E+00
    -13.348  0.0000E+00  0.0000E+00  0.0000E+00  0.0000E+00  0.0000E+00  0.0000E+00
    -13.265 -0.1612E-40  0.0000E+00 -0.4635E-39  0.0000E+00 -0.2059E-38  0.0000E+00
    -13.182 -0.1415E-37 -0.1853E-38 -0.5038E-36 -0.1012E-36 -0.1984E-35 -0.3439E-36
    -13.099 -0.8238E-35 -0.1183E-35 -0.3095E-33 -0.6776E-34 -0.1173E-32 -0.2226E-33
    -13.017 -0.3399E-32 -0.5357E-33 -0.1348E-30 -0.3218E-31 -0.4929E-30 -0.1024E-30
    -12.934 -0.9937E-30 -0.1720E-30 -0.4166E-28 -0.1084E-28 -0.1471E-27 -0.3343E-28
    -12.851 -0.2058E-27 -0.3914E-28 -0.9125E-26 -0.2589E-26 -0.3115E-25 -0.7752E-26
    -12.768 -0.2969E-25 -0.6309E-26 -0.1416E-23 -0.4382E-24 -0.4626E-23 -0.1276E-23
    -12.685 -0.3028E-23 -0.6971E-24 -0.1509E-21 -0.5091E-22 -0.4841E-21 -0.1444E-21
    -12.603 -0.2209E-21 -0.5602E-22 -0.1170E-19 -0.4305E-20 -0.3647E-19 -0.1191E-19
    -12.520 -0.1136E-19 -0.3176E-20 -0.6403E-18 -0.2571E-18 -0.1946E-17 -0.6954E-18
    -12.437 -0.4113E-18 -0.1269E-18 -0.2472E-16 -0.1083E-16 -0.7337E-16 -0.2871E-16
    -12.354 -0.1044E-16 -0.3562E-17 -0.6711E-15 -0.3210E-15 -0.1952E-14 -0.8360E-15
    -12.271 -0.1851E-15 -0.6996E-16 -0.1276E-13 -0.6672E-14 -0.3649E-13 -0.1713E-13
    -12.188 -0.2273E-14 -0.9553E-15 -0.1690E-12 -0.9669E-13 -0.4770E-12 -0.2455E-12
    -12.106 -0.1908E-13 -0.8971E-14 -0.1540E-11 -0.9678E-12 -0.4317E-11 -0.2443E-11
    -12.023 -0.1068E-12 -0.5679E-13 -0.9473E-11 -0.6576E-11 -0.2658E-10 -0.1661E-10
    -11.940 -0.3768E-12 -0.2321E-12 -0.3763E-10 -0.2926E-10 -0.1070E-09 -0.7476E-10
    -11.857 -0.6957E-12 -0.5427E-12 -0.8499E-10 -0.7759E-10 -0.2525E-09 -0.2048E-09
    -11.774  0.1097E-12 -0.3248E-12 -0.4369E-10 -0.7716E-10 -0.1791E-09 -0.2350E-09
    -11.692  0.3997E-11  0.2069E-11  0.3412E-09  0.2132E-09  0.8670E-09  0.4598E-09
    -11.609  0.1041E-10  0.7216E-11  0.1147E-08  0.9700E-09  0.3305E-08  0.2472E-08
    -11.526  0.1429E-10  0.1178E-10  0.1852E-08  0.1800E-08  0.5830E-08  0.4991E-08
    -11.443  0.1165E-10  0.1127E-10  0.1769E-08  0.1932E-08  0.6161E-08  0.5863E-08
    -11.360  0.5345E-11  0.6279E-11  0.9904E-09  0.1229E-08  0.3956E-08  0.4196E-08
    -11.277  0.7620E-12  0.1531E-11  0.2459E-09  0.3875E-09  0.1304E-08  0.1635E-08
    -11.195 -0.6146E-12 -0.4031E-12 -0.6157E-10 -0.3174E-10 -0.6591E-10  0.8172E-10
    -11.112 -0.4536E-12 -0.4831E-12 -0.7628E-10 -0.8769E-10 -0.2783E-09 -0.2672E-09
    -11.029 -0.1556E-12 -0.1953E-12 -0.3111E-10 -0.4118E-10 -0.1369E-09 -0.1547E-09
    -10.946 -0.3338E-13 -0.4702E-13 -0.7510E-11 -0.1090E-10 -0.3739E-10 -0.4645E-10
    -10.863 -0.4827E-14 -0.7477E-14 -0.1192E-11 -0.1871E-11 -0.6564E-11 -0.8827E-11
    -10.781 -0.4840E-15 -0.8158E-15 -0.1291E-12 -0.2177E-12 -0.7770E-12 -0.1124E-11
    -10.698 -0.3407E-16 -0.6209E-16 -0.9715E-14 -0.1753E-13 -0.6332E-13 -0.9823E-13
    -10.615 -0.1694E-17 -0.3324E-17 -0.5119E-15 -0.9869E-15 -0.3592E-14 -0.5967E-14
    -10.532 -0.5966E-19 -0.1257E-18 -0.1899E-16 -0.3907E-16 -0.1427E-15 -0.2537E-15
    -10.449 -0.1490E-20 -0.3367E-20 -0.4971E-18 -0.1091E-17 -0.3986E-17 -0.7579E-17
    -10.367 -0.2641E-22 -0.6391E-22 -0.9203E-20 -0.2153E-19 -0.7849E-19 -0.1596E-18
    -10.284 -0.3321E-24 -0.8615E-24 -0.1208E-21 -0.3009E-21 -0.1091E-20 -0.2373E-20
    -10.201 -0.2753E-26 -0.8593E-26 -0.1147E-23 -0.2919E-23 -0.1094E-22 -0.2528E-22
    -10.118  0.0000E+00  0.0000E+00  0.0000E+00  0.0000E+00  0.0000E+00  0.0000E+00
    -10.035  0.0000E+00  0.0000E+00  0.0000E+00  0.0000E+00  0.0000E+00  0.0000E+00
     -9.952  0.0000E+00  0.0000E+00  0.0000E+00  0.0000E+00  0.0000E+00  0.0000E+00
     -9.870  0.0000E+00  0.0000E+00  0.0000E+00  0.0000E+00  0.0000E+00  0.0000E+00
     -9.787  0.0000E+00  0.0000E+00  0.0000E+00  0.0000E+00  0.0000E+00  0.0000E+00
     -9.704  0.0000E+00  0.0000E+00  0.0000E+00  0.0000E+00  0.0000E+00  0.0000E+00
     -9.621  0.0000E+00  0.0000E+00  0.0000E+00  0.0000E+00  0.0000E+00  0.0000E+00
     -9.538  0.0000E+00  0.0000E+00  0.0000E+00  0.0000E+00  0.0000E+00  0.0000E+00
     -9.456  0.0000E+00  0.0000E+00  0.0000E+00  0.0000E+00  0.0000E+00  0.0000E+00
     -9.373  0.0000E+00  0.0000E+00  0.0000E+00  0.0000E+00  0.0000E+00  0.0000E+00
     -9.290  0.0000E+00  0.0000E+00  0.0000E+00  0.0000E+00  0.0000E+00  0.0000E+00
     -9.207  0.0000E+00  0.0000E+00  0.0000E+00  0.0000E+00  0.0000E+00  0.0000E+00
     -9.124  0.0000E+00  0.0000E+00  0.0000E+00  0.0000E+00  0.0000E+00  0.0000E+00
     -9.041  0.0000E+00  0.0000E+00  0.0000E+00  0.0000E+00  0.0000E+00  0.0000E+00
     -8.959 -0.5723E-32  0.0000E+00 -0.1090E-32  0.0000E+00 -0.6890E-34  0.0000E+00
     -8.876 -0.4331E-29  0.0000E+00 -0.8242E-30  0.0000E+00 -0.5202E-31  0.0000E+00
     -8.793 -0.2334E-26 -0.2650E-32 -0.4441E-27 -0.6152E-33 -0.2799E-28 -0.2809E-34
     -8.710 -0.8945E-24 -0.2072E-29 -0.1701E-24 -0.4808E-30 -0.1071E-25 -0.2192E-31
     -8.627 -0.2434E-21 -0.1154E-26 -0.4627E-22 -0.2677E-27 -0.2909E-23 -0.1219E-28
     -8.545 -0.4697E-19 -0.4568E-24 -0.8928E-20 -0.1060E-24 -0.5607E-21 -0.4817E-26
     -8.462 -0.6281E-17 -0.1284E-21 -0.1194E-17 -0.2978E-22 -0.7491E-19 -0.1352E-23
     -8.379 -0.5998E-15 -0.2560E-19 -0.1140E-15 -0.5936E-20 -0.7147E-17 -0.2693E-21
     -8.296 -0.4072E-13 -0.3501E-17 -0.7736E-14 -0.8116E-18 -0.4848E-15 -0.3680E-19
     -8.213 -0.1945E-11 -0.3490E-15 -0.3695E-12 -0.8089E-16 -0.2315E-13 -0.3666E-17
     -8.130 -0.6517E-10 -0.2447E-13 -0.1238E-10 -0.5670E-14 -0.7753E-12 -0.2568E-15
     -8.048 -0.1525E-08 -0.1207E-11 -0.2896E-09 -0.2797E-12 -0.1814E-10 -0.1266E-13
     -7.965 -0.2477E-07 -0.4177E-10 -0.4704E-08 -0.9679E-11 -0.2949E-09 -0.4381E-12
     -7.882 -0.2766E-06 -0.1010E-08 -0.5254E-07 -0.2340E-09 -0.3301E-08 -0.1059E-10
     -7.799 -0.2090E-05 -0.1695E-07 -0.3972E-06 -0.3928E-08 -0.2512E-07 -0.1779E-09
     -7.716 -0.1038E-04 -0.1958E-06 -0.1975E-05 -0.4537E-07 -0.1273E-06 -0.2058E-08
     -7.634 -0.3173E-04 -0.1533E-05 -0.6067E-05 -0.3553E-06 -0.4150E-06 -0.1618E-07
     -7.551 -0.4805E-04 -0.7909E-05 -0.9394E-05 -0.1835E-05 -0.8171E-06 -0.8465E-07
     -7.468  0.1976E-04 -0.2532E-04  0.2600E-05 -0.5895E-05 -0.8100E-06 -0.2831E-06
     -7.385  0.2496E-03 -0.4148E-04  0.4445E-04 -0.9805E-05  0.3092E-06 -0.5551E-06
     -7.302  0.6067E-03  0.7610E-05  0.1122E-03  0.8812E-06  0.4522E-05 -0.4573E-06
     -7.219  0.1090E-02  0.1935E-03  0.2134E-03  0.4242E-04  0.1863E-04  0.5716E-06
     -7.137  0.1819E-02  0.4906E-03  0.3757E-03  0.1108E-03  0.4828E-04  0.3417E-05
     -7.054  0.2578E-02  0.8850E-03  0.5507E-03  0.2092E-03  0.8434E-04  0.1177E-04
     -6.971  0.2919E-02  0.1490E-02  0.6474E-03  0.3690E-03  0.1175E-03  0.2985E-04
     -6.888  0.2959E-02  0.2169E-02  0.6923E-03  0.5526E-03  0.1547E-03  0.5265E-04
     -6.805  0.2999E-02  0.2512E-02  0.7177E-03  0.6585E-03  0.1781E-03  0.7228E-04
     -6.723  0.2939E-02  0.2552E-02  0.6576E-03  0.7001E-03  0.1483E-03  0.9307E-04
     -6.640  0.3075E-02  0.2538E-02  0.5916E-03  0.7219E-03  0.9612E-04  0.1097E-03
     -6.557  0.4250E-02  0.2357E-02  0.7585E-03  0.6534E-03  0.1064E-03  0.9668E-04
     -6.474  0.6772E-02  0.2235E-02  0.1237E-02  0.5473E-03  0.2036E-03  0.6133E-04
     -6.391  0.9880E-02  0.2892E-02  0.1888E-02  0.6358E-03  0.3844E-03  0.5170E-04
     -6.308  0.1255E-01  0.4664E-02  0.2577E-02  0.1028E-02  0.6865E-03  0.8952E-04
     -6.226  0.1428E-01  0.7306E-02  0.3169E-02  0.1659E-02  0.1047E-02  0.1701E-03
     -6.143  0.1414E-01  0.1006E-01  0.3307E-02  0.2402E-02  0.1237E-02  0.3111E-03
     -6.060  0.1125E-01  0.1213E-01  0.2744E-02  0.3093E-02  0.1134E-02  0.5053E-03
     -5.977  0.7205E-02  0.1301E-01  0.1858E-02  0.3494E-02  0.8632E-03  0.6599E-03
     -5.894  0.4627E-02  0.1186E-01  0.1229E-02  0.3287E-02  0.6066E-03  0.6742E-03
     -5.812  0.4463E-02  0.8535E-02  0.1148E-02  0.2446E-02  0.5635E-03  0.5481E-03
     -5.729  0.7358E-02  0.5072E-02  0.1885E-02  0.1513E-02  0.1044E-02  0.3710E-03
     -5.646  0.1359E-01  0.3412E-02  0.3487E-02  0.1008E-02  0.2152E-02  0.2416E-03
     -5.563  0.2067E-01  0.3785E-02  0.5200E-02  0.1100E-02  0.3410E-02  0.2624E-03
     -5.480  0.2549E-01  0.6821E-02  0.6112E-02  0.2058E-02  0.4131E-02  0.5773E-03
     -5.398  0.2706E-01  0.1267E-01  0.5932E-02  0.3850E-02  0.3928E-02  0.1179E-02
     -5.315  0.2547E-01  0.1852E-01  0.4890E-02  0.5522E-02  0.2928E-02  0.1755E-02
     -5.232  0.2211E-01  0.2194E-01  0.3764E-02  0.6243E-02  0.2002E-02  0.1998E-02
     -5.149  0.1941E-01  0.2313E-01  0.3544E-02  0.6019E-02  0.2326E-02  0.1832E-02
     -5.066  0.1898E-01  0.2214E-01  0.4573E-02  0.5042E-02  0.4321E-02  0.1320E-02
     -4.983  0.2097E-01  0.1960E-01  0.6268E-02  0.3860E-02  0.7157E-02  0.7777E-03
     -4.901  0.2432E-01  0.1774E-01  0.7686E-02  0.3421E-02  0.9462E-02  0.6854E-03
     -4.818  0.2765E-01  0.1744E-01  0.8271E-02  0.4093E-02  0.1030E-01  0.1266E-02
     -4.735  0.2940E-01  0.1823E-01  0.7958E-02  0.5461E-02  0.9595E-02  0.2297E-02
     -4.652  0.2826E-01  0.1961E-01  0.7173E-02  0.6775E-02  0.8631E-02  0.3268E-02
     -4.569  0.2508E-01  0.2124E-01  0.6797E-02  0.7511E-02  0.9661E-02  0.3790E-02
     -4.487  0.2318E-01  0.2362E-01  0.7523E-02  0.7774E-02  0.1399E-01  0.3808E-02
     -4.404  0.2658E-01  0.2619E-01  0.9264E-02  0.7706E-02  0.2035E-01  0.3451E-02
     -4.321  0.3582E-01  0.2694E-01  0.1113E-01  0.7358E-02  0.2572E-01  0.3090E-02
     -4.238  0.4531E-01  0.2532E-01  0.1232E-01  0.7100E-02  0.2924E-01  0.3236E-02
     -4.155  0.4831E-01  0.2185E-01  0.1311E-01  0.7013E-02  0.3461E-01  0.3956E-02
     -4.072  0.4542E-01  0.1797E-01  0.1455E-01  0.6934E-02  0.4704E-01  0.4924E-02
     -3.990  0.4353E-01  0.1807E-01  0.1721E-01  0.7379E-02  0.6920E-01  0.5979E-02
     -3.907  0.4451E-01  0.2581E-01  0.2041E-01  0.8826E-02  0.9964E-01  0.6931E-02
     -3.824  0.4299E-01  0.3804E-01  0.2275E-01  0.1055E-01  0.1329E+00  0.7400E-02
     -3.741  0.3799E-01  0.4687E-01  0.2388E-01  0.1163E-01  0.1645E+00  0.7618E-02
     -3.658  0.3693E-01  0.4741E-01  0.2513E-01  0.1206E-01  0.2019E+00  0.8442E-02
     -3.576  0.4525E-01  0.4092E-01  0.2795E-01  0.1199E-01  0.2598E+00  0.9901E-02
     -3.493  0.5824E-01  0.3325E-01  0.3152E-01  0.1132E-01  0.3305E+00  0.1078E-01
     -3.410  0.6632E-01  0.3082E-01  0.3305E-01  0.1063E-01  0.3804E+00  0.1042E-01
     -3.327  0.6633E-01  0.3452E-01  0.3130E-01  0.1096E-01  0.3939E+00  0.9988E-02
     -3.244  0.6453E-01  0.3887E-01  0.2823E-01  0.1238E-01  0.3947E+00  0.1105E-01
     -3.161  0.7212E-01  0.3915E-01  0.2617E-01  0.1394E-01  0.4077E+00  0.1389E-01
     -3.079  0.9739E-01  0.3582E-01  0.2553E-01  0.1537E-01  0.4277E+00  0.1842E-01
     -2.996  0.1319E+00  0.3186E-01  0.2485E-01  0.1733E-01  0.4289E+00  0.2451E-01
     -2.913  0.1497E+00  0.3016E-01  0.2227E-01  0.1925E-01  0.4004E+00  0.2991E-01
     -2.830  0.1347E+00  0.3396E-01  0.1789E-01  0.1936E-01  0.3849E+00  0.3092E-01
     -2.747  0.9814E-01  0.4432E-01  0.1456E-01  0.1790E-01  0.4752E+00  0.2827E-01
     -2.665  0.6218E-01  0.5550E-01  0.1504E-01  0.1792E-01  0.7383E+00  0.2954E-01
     -2.582  0.3843E-01  0.5863E-01  0.1871E-01  0.2126E-01  0.1110E+01  0.4057E-01
     -2.499  0.2643E-01  0.5204E-01  0.2192E-01  0.2553E-01  0.1405E+01  0.5588E-01
     -2.416  0.2151E-01  0.4363E-01  0.2193E-01  0.2723E-01  0.1506E+01  0.6532E-01
     -2.333  0.1985E-01  0.4102E-01  0.1946E-01  0.2661E-01  0.1483E+01  0.6815E-01
     -2.250  0.2012E-01  0.4393E-01  0.1696E-01  0.2652E-01  0.1485E+01  0.7176E-01