       N       E                     dE             d eps       ncg     rms          rms(c)
DAV:   1     0.272470904951E+04    0.27247E+04   -0.11821E+05 20512   0.117E+03
DAV:   2    -0.114067323905E+03   -0.28388E+04   -0.26416E+04 20480   0.316E+02
DAV:   3    -0.357904095099E+03   -0.24384E+03   -0.20379E+03 21760   0.129E+02
DAV:   4    -0.368046404956E+03   -0.10142E+02   -0.98926E+01 21712   0.306E+01
DAV:   5    -0.368238594400E+03   -0.19219E+00   -0.19198E+00 22400   0.346E+00    0.703E+01
RMM:   6    -0.365767938890E+03    0.24707E+01   -0.97130E-01 21449   0.301E+00    0.683E+01
RMM:   7    -0.367845507598E+03   -0.20776E+01   -0.47608E-01 21895   0.182E+00    0.708E+01
RMM:   8    -0.369086729349E+03   -0.12412E+01   -0.49760E-01 21744   0.195E+00    0.732E+01
RMM:   9    -0.360924134836E+03    0.81626E+01   -0.59093E-01 21621   0.219E+00    0.633E+01
RMM:  10    -0.341631120226E+03    0.19293E+02   -0.38466E+01 20916   0.207E+01    0.455E+01
RMM:  11    -0.331761697940E+03    0.98694E+01   -0.20384E+01 21027   0.122E+01    0.374E+01
RMM:  12    -0.326502590816E+03    0.52591E+01   -0.97106E+00 21112   0.858E+00    0.319E+01
RMM:  13    -0.324150282835E+03    0.23523E+01   -0.72298E+00 21121   0.786E+00    0.280E+01
RMM:  14    -0.325101938749E+03   -0.95166E+00   -0.14578E+00 21274   0.290E+00    0.267E+01
RMM:  15    -0.326447771885E+03   -0.13458E+01   -0.24487E-01 21406   0.111E+00    0.247E+01
RMM:  16    -0.328019439290E+03   -0.15717E+01   -0.77010E-01 21386   0.242E+00    0.217E+01
RMM:  17    -0.328046166824E+03   -0.26728E-01   -0.35596E-02 21662   0.420E-01    0.218E+01
RMM:  18    -0.327795202481E+03    0.25096E+00   -0.63571E-01 20828   0.244E+00    0.232E+01
RMM:  19    -0.327919593668E+03   -0.12439E+00   -0.78875E-02 21151   0.730E-01    0.213E+01
RMM:  20    -0.326599767547E+03    0.13198E+01   -0.26721E+00 21070   0.555E+00    0.153E+01
RMM:  21    -0.326147737089E+03    0.45203E+00   -0.69175E-01 21341   0.182E+00    0.115E+01
RMM:  22    -0.325853497542E+03    0.29424E+00   -0.16425E-01 21585   0.993E-01    0.104E+01
RMM:  23    -0.326174455423E+03   -0.32096E+00   -0.15265E-01 21180   0.128E+00    0.756E+00
RMM:  24    -0.326311084917E+03   -0.13663E+00   -0.36614E-02 21300   0.511E-01    0.694E+00
RMM:  25    -0.326613414434E+03   -0.30233E+00   -0.14684E-01 20875   0.114E+00    0.489E+00
RMM:  26    -0.326656770588E+03   -0.43356E-01   -0.71959E-02 21153   0.827E-01    0.399E+00
RMM:  27    -0.326637576539E+03    0.19194E-01   -0.74425E-02 21165   0.730E-01    0.292E+00
RMM:  28    -0.326596150451E+03    0.41426E-01   -0.90241E-02 21297   0.871E-01    0.207E+00
RMM:  29    -0.326585174360E+03    0.10976E-01   -0.22231E-02 21602   0.346E-01    0.165E+00
RMM:  30    -0.326569382861E+03    0.15791E-01   -0.36955E-02 21421   0.488E-01    0.124E+00
RMM:  31    -0.326565458751E+03    0.39241E-02   -0.86783E-03 21771   0.214E-01    0.116E+00
RMM:  32    -0.326560600930E+03    0.48578E-02   -0.26306E-03 21160   0.149E-01    0.951E-01
RMM:  33    -0.326557117256E+03    0.34837E-02   -0.34734E-03 21130   0.154E-01    0.867E-01
RMM:  34    -0.326553219962E+03    0.38973E-02   -0.80430E-03 21060   0.248E-01    0.726E-01
RMM:  35    -0.326554570955E+03   -0.13510E-02   -0.25079E-03 20955   0.108E-01    0.608E-01
RMM:  36    -0.326555296803E+03   -0.72585E-03   -0.17394E-03 20939   0.103E-01    0.518E-01
RMM:  37    -0.326555347372E+03   -0.50569E-04   -0.20393E-03 20959   0.123E-01    0.404E-01
RMM:  38    -0.326555432171E+03   -0.84798E-04   -0.94554E-04 21089   0.766E-02    0.312E-01
RMM:  39    -0.326555299770E+03    0.13240E-03   -0.32988E-04 21151   0.489E-02    0.246E-01
RMM:  40    -0.326555306528E+03   -0.67578E-05   -0.21230E-04 20980   0.398E-02    0.193E-01
RMM:  41    -0.326555443871E+03   -0.13734E-03   -0.21635E-04 20983   0.407E-02    0.138E-01
RMM:  42    -0.326555434373E+03    0.94980E-05   -0.88417E-05 20688   0.263E-02
   1 F= -.32655543E+03 E0= -.32654687E+03  d E =-.257016E-01  mag=    96.9217
