 vasp.5.4.4.18Apr17-6-g9f103f2a35 (build Nov  8 2022 18:58:45) complex           
 executed on             LinuxGNU date 2023.06.12  00:32:02
 running on  128 total cores
 distrk:  each k-point on   64 cores,    2 groups
 distr:  one band on NCORES_PER_BAND=   4 cores,   16 groups


--------------------------------------------------------------------------------------------------------


 INCAR:
 POTCAR:    PAW_PBE Fe 06Sep2000                  
 POTCAR:    PAW_PBE He 05Jan2001                  
 POTCAR:    PAW_PBE Fe 06Sep2000                  

 ----------------------------------------------------------------------------- 
|                                                                             |
|           W    W    AA    RRRRR   N    N  II  N    N   GGGG   !!!           |
|           W    W   A  A   R    R  NN   N  II  NN   N  G    G  !!!           |
|           W    W  A    A  R    R  N N  N  II  N N  N  G       !!!           |
|           W WW W  AAAAAA  RRRRR   N  N N  II  N  N N  G  GGG   !            |
|           WW  WW  A    A  R   R   N   NN  II  N   NN  G    G                |
|           W    W  A    A  R    R  N    N  II  N    N   GGGG   !!!           |
|                                                                             |
|      For optimal performance we recommend to set                            |
|        NCORE= 4 - approx SQRT( number of cores)                             |
|      NCORE specifies how many cores store one orbital (NPAR=cpu/NCORE).     |
|      This setting can  greatly improve the performance of VASP for DFT.     |
|      The default,   NCORE=1            might be grossly inefficient         |
|      on modern multi-core architectures or massively parallel machines.     |
|      Do your own testing !!!!                                               |
|      Unfortunately you need to use the default for GW and RPA calculations. |
|      (for HF NCORE is supported but not extensively tested yet)             |
|                                                                             |
 ----------------------------------------------------------------------------- 


 ----------------------------------------------------------------------------- 
|                                                                             |
|           W    W    AA    RRRRR   N    N  II  N    N   GGGG   !!!           |
|           W    W   A  A   R    R  NN   N  II  NN   N  G    G  !!!           |
|           W    W  A    A  R    R  N N  N  II  N N  N  G       !!!           |
|           W WW W  AAAAAA  RRRRR   N  N N  II  N  N N  G  GGG   !            |
|           WW  WW  A    A  R   R   N   NN  II  N   NN  G    G                |
|           W    W  A    A  R    R  N    N  II  N    N   GGGG   !!!           |
|                                                                             |
|      You have enabled k-point parallelism (KPAR>1).                         |
|      This developmental code was originally  written by Paul Kent at ORNL,  |
|      and carefully double checked in Vienna.                                |
|      GW as well as linear response parallelism added by Martijn Marsman     |
|      and Georg Kresse.                                                      |
|      Carefully verify results versus KPAR=1.                                |
|      Report problems to Paul Kent and Vienna.                               |
|                                                                             |
 ----------------------------------------------------------------------------- 

 POTCAR:    PAW_PBE Fe 06Sep2000                  
   VRHFIN =Fe:  d7 s1                                                           
   LEXCH  = PE                                                                  
   EATOM  =   594.3153 eV,   43.6809 Ry                                         
                                                                                
   TITEL  = PAW_PBE Fe 06Sep2000                                                
   LULTRA =        F    use ultrasoft PP ?                                      
   IUNSCR =        1    unscreen: 0-lin 1-nonlin 2-no                           
   RPACOR =    2.000    partial core radius                                     
   POMASS =   55.847; ZVAL   =    8.000    mass and valenz                      
   RCORE  =    2.300    outmost cutoff radius                                   
   RWIGS  =    2.460; RWIGS  =    1.302    wigner-seitz radius (au A)           
   ENMAX  =  267.882; ENMIN  =  200.911 eV                                      
   RCLOC  =    1.701    cutoff for local pot                                    
   LCOR   =        T    correct aug charges                                     
   LPAW   =        T    paw PP                                                  
   EAUG   =  511.368                                                            
   DEXC   =    0.000                                                            
   RMAX   =    2.356    core radius for proj-oper                               
   RAUG   =    1.300    factor for augmentation sphere                          
   RDEP   =    2.442    radius for radial grids                                 
   RDEPT  =    1.890    core radius for aug-charge                              
                                                                                
   Atomic configuration                                                         
    9 entries                                                                   
     n  l   j            E        occ.                                          
     1  0  0.50     -6993.8440   2.0000                                         
     2  0  0.50      -814.6047   2.0000                                         
     2  1  1.50      -693.3689   6.0000                                         
     3  0  0.50       -89.4732   2.0000                                         
     3  1  1.50       -55.6373   6.0000                                         
     3  2  2.50        -3.8151   7.0000                                         
     4  0  0.50        -4.2551   1.0000                                         
     4  1  1.50        -3.4015   0.0000                                         
     4  3  2.50        -1.3606   0.0000                                         
   Description                                                                  
     l       E           TYP  RCUT    TYP  RCUT                                 
     2     -3.8151135     23  2.300                                             
     2     -5.1756961     23  2.300                                             
     0     -4.2550963     23  2.300                                             
     0      7.2035603     23  2.300                                             
     1     -2.7211652     23  2.300                                             
     1     18.4316424     23  2.300                                             
  local pseudopotential read in
  partial core-charges read in
  partial kinetic energy density read in
  atomic valenz-charges read in
  non local Contribution for L=           2  read in
    real space projection operators read in
  non local Contribution for L=           2  read in
    real space projection operators read in
  non local Contribution for L=           0  read in
    real space projection operators read in
  non local Contribution for L=           0  read in
    real space projection operators read in
  non local Contribution for L=           1  read in
    real space projection operators read in
  non local Contribution for L=           1  read in
    real space projection operators read in
    PAW grid and wavefunctions read in

   number of l-projection  operators is LMAX  =           6
   number of lm-projection operators is LMMAX =          18

 POTCAR:    PAW_PBE He 05Jan2001                  
   VRHFIN =He: 1s                                                               
   LEXCH  = PE                                                                  
   EATOM  =    78.7251 eV,    5.7861 Ry                                         
                                                                                
   TITEL  = PAW_PBE He 05Jan2001                                                
   LULTRA =        F    use ultrasoft PP ?                                      
   IUNSCR =        0    unscreen: 0-lin 1-nonlin 2-no                           
   RPACOR =    0.000    partial core radius                                     
   POMASS =    4.000; ZVAL   =    2.000    mass and valenz                      
   RCORE  =    1.100    outmost cutoff radius                                   
   RWIGS  =    1.200; RWIGS  =    0.635    wigner-seitz radius (au A)           
   ENMAX  =  478.896; ENMIN  =  359.172 eV                                      
   RCLOC  =    0.703    cutoff for local pot                                    
   LCOR   =        T    correct aug charges                                     
   LPAW   =        T    paw PP                                                  
   EAUG   = 1180.948                                                            
   RMAX   =    1.121    core radius for proj-oper                               
   RAUG   =    1.200    factor for augmentation sphere                          
   RDEP   =    1.110    radius for radial grids                                 
   RDEPT  =    0.925    core radius for aug-charge                              
                                                                                
   Atomic configuration                                                         
    2 entries                                                                   
     n  l   j            E        occ.                                          
     1  0  0.50       -15.7639   2.0000                                         
     2  1  0.50        -2.8912   0.0000                                         
   Description                                                                  
     l       E           TYP  RCUT    TYP  RCUT                                 
     0    -15.7638888     23  1.100                                             
     0      6.8029130     23  1.100                                             
     1     -6.8029130     23  1.100                                             
  local pseudopotential read in
  atomic valenz-charges read in
  non local Contribution for L=           0  read in
    real space projection operators read in
  non local Contribution for L=           0  read in
    real space projection operators read in
  non local Contribution for L=           1  read in
    real space projection operators read in
    PAW grid and wavefunctions read in

   number of l-projection  operators is LMAX  =           3
   number of lm-projection operators is LMMAX =           5

 POTCAR:    PAW_PBE Fe 06Sep2000                  
   VRHFIN =Fe:  d7 s1                                                           
   LEXCH  = PE                                                                  
   EATOM  =   594.3153 eV,   43.6809 Ry                                         
                                                                                
   TITEL  = PAW_PBE Fe 06Sep2000                                                
   LULTRA =        F    use ultrasoft PP ?                                      
   IUNSCR =        1    unscreen: 0-lin 1-nonlin 2-no                           
   RPACOR =    2.000    partial core radius                                     
   POMASS =   55.847; ZVAL   =    8.000    mass and valenz                      
   RCORE  =    2.300    outmost cutoff radius                                   
   RWIGS  =    2.460; RWIGS  =    1.302    wigner-seitz radius (au A)           
   ENMAX  =  267.882; ENMIN  =  200.911 eV                                      
   RCLOC  =    1.701    cutoff for local pot                                    
   LCOR   =        T    correct aug charges                                     
   LPAW   =        T    paw PP                                                  
   EAUG   =  511.368                                                            
   DEXC   =    0.000                                                            
   RMAX   =    2.356    core radius for proj-oper                               
   RAUG   =    1.300    factor for augmentation sphere                          
   RDEP   =    2.442    radius for radial grids                                 
   RDEPT  =    1.890    core radius for aug-charge                              
                                                                                
   Atomic configuration                                                         
    9 entries                                                                   
     n  l   j            E        occ.                                          
     1  0  0.50     -6993.8440   2.0000                                         
     2  0  0.50      -814.6047   2.0000                                         
     2  1  1.50      -693.3689   6.0000                                         
     3  0  0.50       -89.4732   2.0000                                         
     3  1  1.50       -55.6373   6.0000                                         
     3  2  2.50        -3.8151   7.0000                                         
     4  0  0.50        -4.2551   1.0000                                         
     4  1  1.50        -3.4015   0.0000                                         
     4  3  2.50        -1.3606   0.0000                                         
   Description                                                                  
     l       E           TYP  RCUT    TYP  RCUT                                 
     2     -3.8151135     23  2.300                                             
     2     -5.1756961     23  2.300                                             
     0     -4.2550963     23  2.300                                             
     0      7.2035603     23  2.300                                             
     1     -2.7211652     23  2.300                                             
     1     18.4316424     23  2.300                                             
  local pseudopotential read in
  partial core-charges read in
  partial kinetic energy density read in
  atomic valenz-charges read in
  non local Contribution for L=           2  read in
    real space projection operators read in
  non local Contribution for L=           2  read in
    real space projection operators read in
  non local Contribution for L=           0  read in
    real space projection operators read in
  non local Contribution for L=           0  read in
    real space projection operators read in
  non local Contribution for L=           1  read in
    real space projection operators read in
  non local Contribution for L=           1  read in
    real space projection operators read in
    PAW grid and wavefunctions read in

   number of l-projection  operators is LMAX  =           6
   number of lm-projection operators is LMMAX =          18

 Optimization of the real space projectors (new method)

 maximal supplied QI-value         = 16.25
 optimisation between [QCUT,QGAM] = [ 10.24, 20.48] = [ 29.35,117.42] Ry 
 Optimized for a Real-space Cutoff    1.55 Angstroem

   l    n(q)    QCUT    max X(q) W(low)/X(q) W(high)/X(q)  e(spline) 
   2      9    10.239    80.901    0.14E-03    0.38E-03    0.21E-06
   2      9    10.239    75.754    0.14E-03    0.38E-03    0.22E-06
   0     10    10.239    58.752    0.62E-04    0.49E-05    0.83E-07
   0     10    10.239    30.679    0.52E-04    0.50E-05    0.76E-07
   1      9    10.239    17.977    0.85E-04    0.98E-04    0.12E-06
   1      9    10.239    13.559    0.69E-04    0.82E-04    0.10E-06
 Optimization of the real space projectors (new method)

 maximal supplied QI-value         = 34.20
 optimisation between [QCUT,QGAM] = [  9.92, 20.18] = [ 27.55,114.04] Ry 
 Optimized for a Real-space Cutoff    1.55 Angstroem

   l    n(q)    QCUT    max X(q) W(low)/X(q) W(high)/X(q)  e(spline) 
   0      9     9.919     9.826    0.10E-03    0.49E-03    0.12E-05
   0      9     9.919     6.706    0.12E-03    0.54E-03    0.13E-05
   1      9     9.919     3.196    0.40E-04    0.16E-03    0.63E-06
 Optimization of the real space projectors (new method)

 maximal supplied QI-value         = 16.25
 optimisation between [QCUT,QGAM] = [ 10.24, 20.48] = [ 29.35,117.42] Ry 
 Optimized for a Real-space Cutoff    1.55 Angstroem

   l    n(q)    QCUT    max X(q) W(low)/X(q) W(high)/X(q)  e(spline) 
   2      9    10.239    80.901    0.14E-03    0.38E-03    0.21E-06
   2      9    10.239    75.754    0.14E-03    0.38E-03    0.22E-06
   0     10    10.239    58.752    0.62E-04    0.49E-05    0.83E-07
   0     10    10.239    30.679    0.52E-04    0.50E-05    0.76E-07
   1      9    10.239    17.977    0.85E-04    0.98E-04    0.12E-06
   1      9    10.239    13.559    0.69E-04    0.82E-04    0.10E-06
  PAW_PBE Fe 06Sep2000                  :
 energy of atom  1       EATOM= -594.3153
 kinetic energy error for atom=    0.0088 (will be added to EATOM!!)
  PAW_PBE He 05Jan2001                  :
 energy of atom  2       EATOM=  -78.7251
 kinetic energy error for atom=    0.1530 (will be added to EATOM!!)
  PAW_PBE Fe 06Sep2000                  :
 energy of atom  3       EATOM= -594.3153
 kinetic energy error for atom=    0.0088 (will be added to EATOM!!)


 POSCAR: Fe41 He1                                
  positions in direct lattice
  No initial velocities read in
 exchange correlation table for  LEXCH =        8
   RHO(1)=    0.500       N(1)  =     2000
   RHO(2)=  100.500       N(2)  =     4000



--------------------------------------------------------------------------------------------------------


 ion  position               nearest neighbor table
   1  1.000  0.036  0.254-   5 2.34   3 2.43   2 2.47   2 2.47   4 2.68   4 2.68   3 2.77
   2  0.500  0.327  0.264-   3 2.40   3 2.40   6 2.44   4 2.46   1 2.47   1 2.47   4 2.73   5 2.86
                             5 2.86
   3  1.000  0.575  0.276-   2 2.40   2 2.40   5 2.41   1 2.43   7 2.44   4 2.45   4 2.45   1 2.77
                             6 2.80   6 2.80   5 2.86
   4  0.500  0.859  0.285-   3 2.45   3 2.45   2 2.46   5 2.47   5 2.47   6 2.51   8 2.55   1 2.68
                             1 2.68   2 2.73   6 2.88   7 2.91   7 2.91
   5  1.000  0.128  0.299-   1 2.34   3 2.41   7 2.44   9 2.46   6 2.46   6 2.46   4 2.47   4 2.47
                             8 2.82   8 2.82   7 2.84   3 2.86   2 2.86   2 2.86
   6  0.500  0.404  0.311-   2 2.44   7 2.45   7 2.45   8 2.46   5 2.46   5 2.46  10 2.47   4 2.51
                             3 2.80   3 2.80   8 2.83   9 2.84   9 2.84   4 2.88
   7  1.000  0.676  0.323-   3 2.44   5 2.44   8 2.45   8 2.45   6 2.45   6 2.45  11 2.45   9 2.45
                             9 2.84  10 2.84  10 2.84   5 2.84   4 2.91   4 2.91
   8  0.500  0.948  0.335-   7 2.45   7 2.45   9 2.46   9 2.46   6 2.46  10 2.46  12 2.47   4 2.55
                             5 2.82   5 2.82   6 2.83  11 2.83  11 2.83  10 2.84
   9  1.000  0.222  0.347-  11 2.45  13 2.45   7 2.45  10 2.45  10 2.45   5 2.46   8 2.46   8 2.46
                            11 2.83  12 2.83  12 2.83   7 2.84   6 2.84   6 2.84
  10  0.500  0.494  0.359-  12 2.45  11 2.45  11 2.45   9 2.45   9 2.45   8 2.46   6 2.47  14 2.47
                            13 2.82  13 2.82  12 2.83   7 2.84   7 2.84   8 2.84
  11  1.000  0.768  0.370-   9 2.45  13 2.45  10 2.45   7 2.45  10 2.45  12 2.45  12 2.45  15 2.46
                             9 2.83   8 2.83   8 2.83  13 2.84  14 2.85  14 2.85
  12  0.500  0.040  0.382-  10 2.45  14 2.45  11 2.45  11 2.45  13 2.45  13 2.45   8 2.47  16 2.52
                            15 2.82  15 2.82  10 2.83   9 2.83   9 2.83  14 2.85
  13  1.000  0.314  0.394-  17 2.42  15 2.44  11 2.45   9 2.45  12 2.45  12 2.45  14 2.46  14 2.46
                            10 2.82  10 2.82  11 2.84  15 2.85  16 2.88  16 2.88
  14  0.500  0.587  0.406-  12 2.45  15 2.45  15 2.45  13 2.46  13 2.46  10 2.47  16 2.48  18 2.55
                            17 2.78  17 2.78  11 2.85  11 2.85  12 2.85  16 2.86
  15  1.000  0.862  0.418-  19 2.36  17 2.40  13 2.44  14 2.45  14 2.45  11 2.46  16 2.47  16 2.47
                            12 2.82  12 2.82  17 2.84  13 2.85  18 2.95  18 2.95
  16  0.500  0.134  0.431-  17 2.44  17 2.44  15 2.47  15 2.47  14 2.48  12 2.52  18 2.56  19 2.70
                            19 2.70  18 2.78  14 2.86  13 2.88  13 2.88
  17  1.000  0.414  0.441-  19 2.39  15 2.40  13 2.42  18 2.44  18 2.44  16 2.44  16 2.44  21 2.46
                            14 2.78  14 2.78  15 2.84  19 2.85
  18  0.500  0.660  0.456-  17 2.44  17 2.44  19 2.50  19 2.50  14 2.55  16 2.56  21 2.66  21 2.66
                            16 2.78  15 2.95  15 2.95
  19  1.000  0.968  0.463-  15 2.36  17 2.39  21 2.45  18 2.50  18 2.50  22 2.52  16 2.70  16 2.70
                            17 2.85  21 2.88
  20  0.500  0.170  0.488-
  21  1.000  0.521  0.488-  19 2.45  17 2.46  24 2.46  22 2.47  18 2.66  18 2.66  23 2.67  23 2.67
                            22 2.87  19 2.88
  22  0.000  0.973  0.513-  26 2.36  24 2.40  21 2.47  23 2.50  23 2.50  19 2.52  25 2.70  25 2.70
                            24 2.84  21 2.87
  23  0.500  0.665  0.520-  24 2.44  24 2.44  22 2.50  22 2.50  27 2.55  25 2.57  21 2.67  21 2.67
                            25 2.77  26 2.95  26 2.95
  24  0.000  0.420  0.535-  22 2.40  28 2.41  26 2.41  23 2.44  23 2.44  25 2.44  25 2.44  21 2.46
                            27 2.78  27 2.78  26 2.83  22 2.84
  25  0.500  0.140  0.545-  24 2.44  24 2.44  26 2.46  26 2.46  27 2.48  29 2.51  23 2.57  22 2.70
                            22 2.70  23 2.77  27 2.85  28 2.88  28 2.88
  26  0.000  0.870  0.558-  22 2.36  24 2.41  27 2.45  27 2.45  28 2.45  30 2.46  25 2.46  25 2.46
                            29 2.83  29 2.83  24 2.83  28 2.84  23 2.95  23 2.95
  27  0.500  0.596  0.569-  26 2.45  26 2.45  28 2.46  28 2.46  29 2.46  31 2.47  25 2.48  23 2.55
                            24 2.78  24 2.78  29 2.84  25 2.85  30 2.85  30 2.85
  28  0.000  0.324  0.582-  24 2.41  26 2.45  29 2.45  29 2.45  32 2.45  27 2.46  27 2.46  30 2.46
                            31 2.83  31 2.83  30 2.83  26 2.84  25 2.88  25 2.88
  29  0.500  0.050  0.593-  28 2.45  28 2.45  30 2.45  30 2.45  33 2.46  27 2.46  31 2.46  25 2.51
                            26 2.83  26 2.83  31 2.83  27 2.84  32 2.84  32 2.84
  30  0.000  0.779  0.606-  34 2.44  32 2.45  31 2.45  31 2.45  29 2.45  29 2.45  28 2.46  26 2.46
                            33 2.83  33 2.83  32 2.83  28 2.83  27 2.85  27 2.85
  31  0.500  0.506  0.617-  30 2.45  30 2.45  33 2.45  32 2.45  32 2.45  29 2.46  35 2.46  27 2.47
                            28 2.83  28 2.83  34 2.83  34 2.83  33 2.83  29 2.83
  32  1.000  0.233  0.629-  36 2.45  30 2.45  34 2.45  33 2.45  33 2.45  28 2.45  31 2.45  31 2.45
                            34 2.83  30 2.83  35 2.84  35 2.84  29 2.84  29 2.84
  33  0.500  0.960  0.641-  34 2.45  34 2.45  32 2.45  32 2.45  31 2.45  29 2.46  37 2.46  35 2.46
                            30 2.83  30 2.83  31 2.83  36 2.83  36 2.83  35 2.83
  34  1.000  0.688  0.653-  30 2.44  33 2.45  33 2.45  32 2.45  36 2.45  35 2.45  35 2.45  38 2.46
                            32 2.83  31 2.83  31 2.83  36 2.83  37 2.84  37 2.84
  35  0.500  0.416  0.665-  36 2.45  36 2.45  34 2.45  34 2.45  37 2.46  33 2.46  31 2.46  39 2.55
                            38 2.82  38 2.82  37 2.83  33 2.83  32 2.84  32 2.84
  36  1.000  0.142  0.676-  40 2.44  38 2.44  32 2.45  35 2.45  35 2.45  37 2.45  37 2.45  34 2.45
                            33 2.83  33 2.83  34 2.83  38 2.84  39 2.91  39 2.91
  37  0.500  0.871  0.688-  41 2.44  36 2.45  36 2.45  35 2.46  38 2.46  38 2.46  33 2.46  39 2.51
                            40 2.80  40 2.80  35 2.83  34 2.84  34 2.84  39 2.88
  38  1.000  0.595  0.700-  42 2.34  40 2.41  36 2.44  34 2.46  37 2.46  37 2.46  39 2.47  39 2.47
                            35 2.82  35 2.82  36 2.84  40 2.85  41 2.86  41 2.86
  39  0.500  0.326  0.714-  40 2.45  40 2.45  41 2.46  38 2.47  38 2.47  37 2.51  35 2.55  42 2.68
                            42 2.68  41 2.73  37 2.88  36 2.91  36 2.91
  40  1.000  0.042  0.723-  41 2.40  41 2.40  38 2.41  42 2.43  36 2.44  39 2.45  39 2.45  42 2.76
                            37 2.80  37 2.80  38 2.85
  41  0.500  0.794  0.736-  40 2.40  40 2.40  37 2.44  39 2.46  42 2.47  42 2.47  39 2.73  38 2.86
                            38 2.86
  42  1.000  0.503  0.745-  38 2.34  40 2.43  41 2.47  41 2.47  39 2.68  39 2.68  40 2.76

  LATTYP: Found a simple orthorhombic cell.
 ALAT       =     4.0048390000
 B/A-ratio  =     1.1726039424
 C/A-ratio  =    12.7279223959
  
  Lattice vectors:
  
 A1 = (   4.0048390000,   0.0000000000,   0.0000000000)
 A2 = (   0.0000000000,   4.6960900000,   0.0000000000)
 A3 = (   0.0000000000,   0.0000000000,  50.9732800000)


Analysis of symmetry for initial positions (statically):
=====================================================================
 Subroutine PRICEL returns:
 Original cell was already a primitive cell.
 

 Routine SETGRP: Setting up the symmetry group for a 
 simple orthorhombic supercell.


 Subroutine GETGRP returns: Found  1 space group operations
 (whereof  1 operations were pure point group operations)
 out of a pool of  8 trial point group operations.


The static configuration has the point symmetry C_1 .


Analysis of symmetry for dynamics (positions and initial velocities):
=====================================================================
 Subroutine PRICEL returns:
 Original cell was already a primitive cell.
 

 Routine SETGRP: Setting up the symmetry group for a 
 simple orthorhombic supercell.


 Subroutine GETGRP returns: Found  1 space group operations
 (whereof  1 operations were pure point group operations)
 out of a pool of  8 trial point group operations.


The dynamic configuration has the point symmetry C_1 .


Analysis of structural, dynamic, and magnetic symmetry:
=====================================================================
 Subroutine PRICEL returns:
 Original cell was already a primitive cell.
 

 Routine SETGRP: Setting up the symmetry group for a 
 simple orthorhombic supercell.


 Subroutine GETGRP returns: Found  1 space group operations
 (whereof  1 operations were pure point group operations)
 out of a pool of  8 trial point group operations.


The magnetic configuration has the point symmetry C_1 .


 Subroutine INISYM returns: Found  1 space group operations
 (whereof  1 operations are pure point group operations),
 and found     1 'primitive' translations



 KPOINTS: KPOINTS                                 

Automatic generation of k-mesh.
Space group operators:
 irot       det(A)        alpha          n_x          n_y          n_z        tau_x        tau_y        tau_z
    1     1.000000     0.000000     1.000000     0.000000     0.000000     0.000000     0.000000     0.000000
 
 Subroutine IBZKPT returns following result:
 ===========================================
 
 Found     20 irreducible k-points:
 
 Following reciprocal coordinates:
            Coordinates               Weight
  0.000000  0.000000  0.000000      1.000000
  0.166667  0.000000  0.000000      2.000000
  0.333333  0.000000  0.000000      2.000000
  0.500000  0.000000  0.000000      1.000000
  0.000000  0.166667  0.000000      2.000000
  0.166667  0.166667  0.000000      2.000000
  0.333333  0.166667  0.000000      2.000000
  0.500000  0.166667  0.000000      2.000000
 -0.333333  0.166667  0.000000      2.000000
 -0.166667  0.166667  0.000000      2.000000
  0.000000  0.333333  0.000000      2.000000
  0.166667  0.333333  0.000000      2.000000
  0.333333  0.333333  0.000000      2.000000
  0.500000  0.333333  0.000000      2.000000
 -0.333333  0.333333  0.000000      2.000000
 -0.166667  0.333333  0.000000      2.000000
  0.000000  0.500000  0.000000      1.000000
  0.166667  0.500000  0.000000      2.000000
  0.333333  0.500000  0.000000      2.000000
  0.500000  0.500000  0.000000      1.000000
 
 Following cartesian coordinates:
            Coordinates               Weight
  0.000000  0.000000  0.000000      1.000000
  0.041616  0.000000  0.000000      2.000000
  0.083233  0.000000  0.000000      2.000000
  0.124849  0.000000  0.000000      1.000000
  0.000000  0.035491  0.000000      2.000000
  0.041616  0.035491  0.000000      2.000000
  0.083233  0.035491  0.000000      2.000000
  0.124849  0.035491  0.000000      2.000000
 -0.083233  0.035491  0.000000      2.000000
 -0.041616  0.035491  0.000000      2.000000
  0.000000  0.070981  0.000000      2.000000
  0.041616  0.070981  0.000000      2.000000
  0.083233  0.070981  0.000000      2.000000
  0.124849  0.070981  0.000000      2.000000
 -0.083233  0.070981  0.000000      2.000000
 -0.041616  0.070981  0.000000      2.000000
  0.000000  0.106472  0.000000      1.000000
  0.041616  0.106472  0.000000      2.000000
  0.083233  0.106472  0.000000      2.000000
  0.124849  0.106472  0.000000      1.000000
 


--------------------------------------------------------------------------------------------------------




 Dimension of arrays:
   k-points           NKPTS =     20   k-points in BZ     NKDIM =     20   number of bands    NBANDS=    256
   number of dos      NEDOS =    301   number of ions     NIONS =     42
   non local maximal  LDIM  =      6   non local SUM 2l+1 LMDIM =     18
   total plane-waves  NPLWV = 301056
   max r-space proj   IRMAX =   4984   max aug-charges    IRDMAX=  11385
   dimension x,y,z NGX =    28 NGY =   32 NGZ =  336
   dimension x,y,z NGXF=    56 NGYF=   64 NGZF=  672
   support grid    NGXF=    56 NGYF=   64 NGZF=  672
   ions per type =              19   1  22
   NGX,Y,Z   is equivalent  to a cutoff of  11.62, 11.33, 10.96 a.u.
   NGXF,Y,Z  is equivalent  to a cutoff of  23.25, 22.66, 21.92 a.u.

 SYSTEM =  S11-ra110-s3-32-he-19                   
 POSCAR =  Fe41 He1                                

 Startparameter for this run:
   NWRITE =      2    write-flag & timer
   PREC   = accura    normal or accurate (medium, high low for compatibility)
   ISTART =      0    job   : 0-new  1-cont  2-samecut
   ICHARG =      2    charge: 1-file 2-atom 10-const
   ISPIN  =      2    spin polarized calculation?
   LNONCOLLINEAR =      F non collinear calculations
   LSORBIT =      F    spin-orbit coupling
   INIWAV =      1    electr: 0-lowe 1-rand  2-diag
   LASPH  =      F    aspherical Exc in radial PAW
   METAGGA=      F    non-selfconsistent MetaGGA calc.

 Electronic Relaxation 1
   ENCUT  =  400.0 eV  29.40 Ry    5.42 a.u.   6.53  7.66 83.12*2*pi/ulx,y,z
   ENINI  =  400.0     initial cutoff
   ENAUG  = 1180.9 eV  augmentation charge cutoff
   NELM   =    300;   NELMIN=  2; NELMDL= -5     # of ELM steps 
   EDIFF  = 0.1E-04   stopping-criterion for ELM
   LREAL  =      T    real-space projection
   NLSPLINE    = F    spline interpolate recip. space projectors
   LCOMPAT=      F    compatible to vasp.4.4
   GGA_COMPAT  = T    GGA compatible to vasp.4.4-vasp.4.6
   LMAXPAW     = -100 max onsite density
   LMAXMIX     =    2 max onsite mixed and CHGCAR
   VOSKOWN=      0    Vosko Wilk Nusair interpolation
   ROPT   =   -0.00025  -0.00025  -0.00025
 Ionic relaxation
   EDIFFG = -.1E-01   stopping-criterion for IOM
   NSW    =      0    number of steps for IOM
   NBLOCK =      1;   KBLOCK =      1    inner block; outer block 
   IBRION =     -1    ionic relax: 0-MD 1-quasi-New 2-CG
   NFREE  =      1    steps in history (QN), initial steepest desc. (CG)
   ISIF   =      2    stress and relaxation
   IWAVPR =     10    prediction:  0-non 1-charg 2-wave 3-comb
   ISYM   =      2    0-nonsym 1-usesym 2-fastsym
   LCORR  =      T    Harris-Foulkes like correction to forces

   POTIM  = 0.5000    time-step for ionic-motion
   TEIN   =    0.0    initial temperature
   TEBEG  =    0.0;   TEEND  =   0.0 temperature during run
   SMASS  =  -3.00    Nose mass-parameter (am)
   estimated Nose-frequenzy (Omega)   =  0.10E-29 period in steps =****** mass=  -0.367E-27a.u.
   SCALEE = 1.0000    scale energy and forces
   NPACO  =    256;   APACO  = 16.0  distance and # of slots for P.C.
   PSTRESS=    0.0 pullay stress

  Mass of Ions in am
   POMASS =  55.85  4.00 55.85
  Ionic Valenz
   ZVAL   =   8.00  2.00  8.00
  Atomic Wigner-Seitz radii
   RWIGS  =  -1.00 -1.00 -1.00
  virtual crystal weights 
   VCA    =   1.00  1.00  1.00
   NELECT =     330.0000    total number of electrons
   NUPDOWN=      -1.0000    fix difference up-down

 DOS related values:
   EMIN   =  10.00;   EMAX   =-10.00  energy-range for DOS
   EFERMI =   0.00
   ISMEAR =     1;   SIGMA  =   0.20  broadening in eV -4-tet -1-fermi 0-gaus

 Electronic relaxation 2 (details)
   IALGO  =     68    algorithm
   LDIAG  =      T    sub-space diagonalisation (order eigenvalues)
   LSUBROT=      F    optimize rotation matrix (better conditioning)
   TURBO    =      0    0=normal 1=particle mesh
   IRESTART =      0    0=no restart 2=restart with 2 vectors
   NREBOOT  =      0    no. of reboots
   NMIN     =      0    reboot dimension
   EREF     =   0.00    reference energy to select bands
   IMIX   =      4    mixing-type and parameters
     AMIX     =   0.01;   BMIX     =  0.00
     AMIX_MAG =   0.10;   BMIX_MAG =  0.00
     AMIN     =   0.01
     WC   =   100.;   INIMIX=   1;  MIXPRE=   1;  MAXMIX= -45

 Intra band minimization:
   WEIMIN = 0.0000     energy-eigenvalue tresh-hold
   EBREAK =  0.98E-08  absolut break condition
   DEPER  =   0.30     relativ break condition  

   TIME   =   0.40     timestep for ELM

  volume/ion in A,a.u.               =      22.83       154.03
  Fermi-wavevector in a.u.,A,eV,Ry     =   1.147338  2.168155 17.910505  1.316385
  Thomas-Fermi vector in A             =   2.284019

 Write flags
   LWAVE        =      T    write WAVECAR
   LDOWNSAMPLE  =      F    k-point downsampling of WAVECAR
   LCHARG       =      T    write CHGCAR
   LVTOT        =      F    write LOCPOT, total local potential
   LVHAR        =      F    write LOCPOT, Hartree potential only
   LELF         =      F    write electronic localiz. function (ELF)
   LORBIT       =     10    0 simple, 1 ext, 2 COOP (PROOUT), +10 PAW based schemes


 Dipole corrections
   LMONO  =      F    monopole corrections only (constant potential shift)
   LDIPOL =      F    correct potential (dipole corrections)
   IDIPOL =      0    1-x, 2-y, 3-z, 4-all directions 
   EPSILON=  1.0000000 bulk dielectric constant

 Exchange correlation treatment:
   GGA     =    PE    GGA type
   LEXCH   =     8    internal setting for exchange type
   VOSKOWN=      0    Vosko Wilk Nusair interpolation
   LHFCALC =     F    Hartree Fock is set to
   LHFONE  =     F    Hartree Fock one center treatment
   AEXX    =    0.0000 exact exchange contribution

 Linear response parameters
   LEPSILON=     F    determine dielectric tensor
   LRPA    =     F    only Hartree local field effects (RPA)
   LNABLA  =     F    use nabla operator in PAW spheres
   LVEL    =     F    velocity operator in full k-point grid
   LINTERFAST=   F  fast interpolation
   KINTER  =     0    interpolate to denser k-point grid
   CSHIFT  =0.1000    complex shift for real part using Kramers Kronig
   OMEGAMAX=  -1.0    maximum frequency
   DEG_THRESHOLD= 0.2000000E-02 threshold for treating states as degnerate
   RTIME   =   -0.100 relaxation time in fs
  (WPLASMAI=    0.000 imaginary part of plasma frequency in eV, 0.658/RTIME)
   DFIELD  = 0.0000000 0.0000000 0.0000000 field for delta impulse in time

 Orbital magnetization related:
   ORBITALMAG=     F  switch on orbital magnetization
   LCHIMAG   =     F  perturbation theory with respect to B field
   DQ        =  0.001000  dq finite difference perturbation B field
   LLRAUG    =     F  two centre corrections for induced B field



--------------------------------------------------------------------------------------------------------


 Static calculation
 charge density and potential will be updated during run
 spin polarized calculation
 RMM-DIIS sequential band-by-band and
  variant of blocked Davidson during initial phase
 perform sub-space diagonalisation
    before iterative eigenvector-optimisation
 modified Broyden-mixing scheme, WC =      100.0
 initial mixing is a Kerker type mixing with AMIX =  0.0100 and BMIX =      0.0001
 Hartree-type preconditioning will be used
 using additional bands           91
 real space projection scheme for non local part
 use partial core corrections
 calculate Harris-corrections to forces   (improved forces if not selfconsistent)
 use gradient corrections 
 use of overlap-Matrix (Vanderbilt PP)
 Methfessel and Paxton  Order N= 1 SIGMA  =   0.20


--------------------------------------------------------------------------------------------------------


  energy-cutoff  :      400.00
  volume of cell :      958.66
      direct lattice vectors                 reciprocal lattice vectors
     4.004839000  0.000000000  0.000000000     0.249697928  0.000000000  0.000000000
     0.000000000  4.696090000  0.000000000     0.000000000  0.212943108  0.000000000
     0.000000000  0.000000000 50.973280000     0.000000000  0.000000000  0.019618121

  length of vectors
     4.004839000  4.696090000 50.973280000     0.249697928  0.212943108  0.019618121



 k-points in units of 2pi/SCALE and weight: KPOINTS                                 
   0.00000000  0.00000000  0.00000000       0.028
   0.04161632  0.00000000  0.00000000       0.056
   0.08323264  0.00000000  0.00000000       0.056
   0.12484896  0.00000000  0.00000000       0.028
   0.00000000  0.03549052  0.00000000       0.056
   0.04161632  0.03549052  0.00000000       0.056
   0.08323264  0.03549052  0.00000000       0.056
   0.12484896  0.03549052  0.00000000       0.056
  -0.08323264  0.03549052  0.00000000       0.056
  -0.04161632  0.03549052  0.00000000       0.056
   0.00000000  0.07098104  0.00000000       0.056
   0.04161632  0.07098104  0.00000000       0.056
   0.08323264  0.07098104  0.00000000       0.056
   0.12484896  0.07098104  0.00000000       0.056
  -0.08323264  0.07098104  0.00000000       0.056
  -0.04161632  0.07098104  0.00000000       0.056
   0.00000000  0.10647155  0.00000000       0.028
   0.04161632  0.10647155  0.00000000       0.056
   0.08323264  0.10647155  0.00000000       0.056
   0.12484896  0.10647155  0.00000000       0.028

 k-points in reciprocal lattice and weights: KPOINTS                                 
   0.00000000  0.00000000  0.00000000       0.028
   0.16666667  0.00000000  0.00000000       0.056
   0.33333333  0.00000000  0.00000000       0.056
   0.50000000  0.00000000  0.00000000       0.028
   0.00000000  0.16666667  0.00000000       0.056
   0.16666667  0.16666667  0.00000000       0.056
   0.33333333  0.16666667  0.00000000       0.056
   0.50000000  0.16666667  0.00000000       0.056
  -0.33333333  0.16666667  0.00000000       0.056
  -0.16666667  0.16666667  0.00000000       0.056
   0.00000000  0.33333333  0.00000000       0.056
   0.16666667  0.33333333  0.00000000       0.056
   0.33333333  0.33333333  0.00000000       0.056
   0.50000000  0.33333333  0.00000000       0.056
  -0.33333333  0.33333333  0.00000000       0.056
  -0.16666667  0.33333333  0.00000000       0.056
   0.00000000  0.50000000  0.00000000       0.028
   0.16666667  0.50000000  0.00000000       0.056
   0.33333333  0.50000000  0.00000000       0.056
   0.50000000  0.50000000  0.00000000       0.028

 position of ions in fractional coordinates (direct lattice) 
   0.99994781  0.03561686  0.25426223
   0.49993770  0.32735105  0.26364852
   0.99994032  0.57507842  0.27611486
   0.49995268  0.85946607  0.28532027
   0.99995530  0.12816407  0.29939980
   0.49995518  0.40421074  0.31107219
   0.99995530  0.67565783  0.32306671
   0.49995768  0.94820798  0.33473479
   0.99994781  0.22158860  0.34681092
   0.49996267  0.49422179  0.35875208
   0.99995755  0.76760667  0.37041446
   0.49995019  0.03979481  0.38242134
   0.99995281  0.31395267  0.39409412
   0.49996017  0.58706924  0.40641764
   0.99995780  0.86215554  0.41791641
   0.49995268  0.13351959  0.43117198
   0.99996030  0.41376975  0.44061653
   0.49996267  0.66014706  0.45601107
   0.99996280  0.96845461  0.46324408
   0.50000012  0.17033958  0.48802981
   0.99999750  0.52103984  0.48791524
   0.00002497  0.97255802  0.51264447
   0.50002010  0.66514909  0.51982117
   0.00001498  0.41954690  0.53532537
   0.50001511  0.14009314  0.54479641
   0.00000999  0.86961493  0.55798999
   0.50000762  0.59596388  0.56943010
   0.00000250  0.32359686  0.58171536
   0.50000012  0.05032272  0.59336892
   0.00000000  0.77865629  0.60551273
   0.50000262  0.50556314  0.61718022
   0.99999501  0.23291930  0.62911039
   0.49999513  0.96016686  0.64085890
   0.99999750  0.68790845  0.65267254
   0.49999014  0.41552227  0.66477672
   0.99999526  0.14233969  0.67638064
   0.49999513  0.87095435  0.68843265
   0.99999251  0.59487361  0.70007639
   0.49999513  0.32612450  0.71416397
   0.99999501  0.04214783  0.72339155
   0.49999263  0.79422243  0.73574135
   0.99999750  0.50332511  0.74517630

 position of ions in cartesian coordinates  (Angst):
   4.00463000  0.16726000 12.96058000
   2.00217000  1.53727000 13.43903000
   4.00460000  2.70062000 14.07448000
   2.00223000  4.03613000 14.54371000
   4.00466000  0.60187000 15.26139000
   2.00224000  1.89821000 15.85637000
   4.00466000  3.17295000 16.46777000
   2.00225000  4.45287000 17.06253000
   4.00463000  1.04060000 17.67809000
   2.00227000  2.32091000 18.28677000
   4.00466900  3.60475000 18.88124000
   2.00222000  0.18688000 19.49327000
   4.00465000  1.47435000 20.08827000
   2.00226000  2.75693000 20.71644000
   4.00467000  4.04876000 21.30257000
   2.00223000  0.62702000 21.97825000
   4.00468000  1.94310000 22.45967000
   2.00227000  3.10011000 23.24438000
   4.00469000  4.54795000 23.61307000
   2.00242000  0.79993000 24.87648000
   4.00482900  2.44685000 24.87064000
   0.00010000  4.56722000 26.13117000
   2.00250000  3.12360000 26.49699000
   0.00006000  1.97023000 27.28729000
   2.00248000  0.65789000 27.77006000
   0.00004000  4.08379000 28.44258000
   2.00245000  2.79870000 29.02572000
   0.00001000  1.51964000 29.65194000
   2.00242000  0.23632000 30.24596000
   0.00000000  3.65664000 30.86497000
   2.00243000  2.37417000 31.45970000
   4.00481900  1.09381000 32.06782000
   2.00240000  4.50903000 32.66668000
   4.00482900  3.23048000 33.26886000
   2.00238000  1.95133000 33.88585000
   4.00482000  0.66844000 34.47734000
   2.00240000  4.09008000 35.09167000
   4.00480900  2.79358000 35.68519000
   2.00240000  1.53151000 36.40328000
   4.00481900  0.19793000 36.87364000
   2.00239000  3.72974000 37.50315000
   4.00482900  2.36366000 37.98408000



--------------------------------------------------------------------------------------------------------


 k-point  1 :   0.0000 0.0000 0.0000  plane waves:   17445
 k-point  2 :   0.1667 0.0000 0.0000  plane waves:   17483
 k-point  3 :   0.3333 0.0000 0.0000  plane waves:   17421
 k-point  4 :   0.5000 0.0000 0.0000  plane waves:   17422
 k-point  5 :   0.0000 0.1667 0.0000  plane waves:   17451
 k-point  6 :   0.1667 0.1667 0.0000  plane waves:   17462
 k-point  7 :   0.3333 0.1667 0.0000  plane waves:   17402
 k-point  8 :   0.5000 0.1667 0.0000  plane waves:   17350
 k-point  9 :  -0.3333 0.1667 0.0000  plane waves:   17402
 k-point 10 :  -0.1667 0.1667 0.0000  plane waves:   17462
 k-point 11 :   0.0000 0.3333 0.0000  plane waves:   17455
 k-point 12 :   0.1667 0.3333 0.0000  plane waves:   17422
 k-point 13 :   0.3333 0.3333 0.0000  plane waves:   17384
 k-point 14 :   0.5000 0.3333 0.0000  plane waves:   17304
 k-point 15 :  -0.3333 0.3333 0.0000  plane waves:   17384
 k-point 16 :  -0.1667 0.3333 0.0000  plane waves:   17422
 k-point 17 :   0.0000 0.5000 0.0000  plane waves:   17508
 k-point 18 :   0.1667 0.5000 0.0000  plane waves:   17448
 k-point 19 :   0.3333 0.5000 0.0000  plane waves:   17352
 k-point 20 :   0.5000 0.5000 0.0000  plane waves:   17244

 maximum and minimum number of plane-waves per node :      4394     4300

 maximum number of plane-waves:     17508
 maximum index in each direction: 
   IXMAX=    6   IYMAX=    7   IZMAX=   83
   IXMIN=   -7   IYMIN=   -8   IZMIN=  -83

 redistribution in real space done
 redistribution in real space done

 real space projection operators:
  total allocation   :      27812.82 KBytes
  max/ min on nodes  :       6953.39       6952.95


 total amount of memory used by VASP MPI-rank0   102329. kBytes
=======================================================================

   base      :      30000. kBytes
   nonlr-proj:      12095. kBytes
   fftplans  :       3521. kBytes
   grid      :       9349. kBytes
   one-center:        342. kBytes
   wavefun   :      47022. kBytes

     INWAV:  cpu time    0.0001: real time    0.0000
 Broyden mixing: mesh for mixing (old mesh)
   NGX = 13   NGY = 15   NGZ =167
  (NGX  = 56   NGY  = 64   NGZ  =672)
  gives a total of  32565 points

 initial charge density was supplied:
 charge density of overlapping atoms calculated
 number of electron     330.0000000 magnetization      96.2400000
 keeping initial charge density in first step


--------------------------------------------------------------------------------------------------------


 Maximum index for non-local projection operator         1277
 Maximum index for augmentation-charges          184 (set IRDMAX)


--------------------------------------------------------------------------------------------------------


 First call to EWALD:  gamma=   0.180
 Maximum number of real-space cells 6x 5x 1
 Maximum number of reciprocal cells 1x 2x12

    FEWALD:  cpu time    0.0053: real time    0.0053


--------------------------------------- Iteration      1(   1)  ---------------------------------------


    POTLOK:  cpu time    0.0907: real time    0.0932
    SETDIJ:  cpu time    0.0139: real time    0.0139
     EDDAV:  cpu time   24.6651: real time   24.7716
       DOS:  cpu time    0.0032: real time    0.0033
    --------------------------------------------
      LOOP:  cpu time   24.7729: real time   24.8820

 eigenvalue-minimisations  : 20512
 total energy-change (2. order) : 0.2724709E+04  (-0.1182119E+05)
 number of electron     330.0000000 magnetization      96.2400000
 augmentation part      330.0000000 magnetization      96.2400000

 Free energy of the ion-electron system (eV)
  ---------------------------------------------------
  alpha Z        PSCENC =      1220.95571582
  Ewald energy   TEWEN  =    497457.54926839
  -Hartree energ DENC   =   -522857.07047073
  -exchange      EXHF   =         0.00000000
  -V(xc)+E(xc)   XCENC  =       190.11544839
  PAW double counting   =     22767.62741590   -23084.86731573
  entropy T*S    EENTRO =         0.00111152
  eigenvalues    EBANDS =      2585.25815883
  atomic energy  EATOM  =     24445.13971712
  Solvation  Ediel_sol  =         0.00000000
  ---------------------------------------------------
  free energy    TOTEN  =      2724.70904951 eV

  energy without entropy =     2724.70793799  energy(sigma->0) =     2724.70867900


--------------------------------------------------------------------------------------------------------




--------------------------------------- Iteration      1(   2)  ---------------------------------------


     EDDAV:  cpu time   26.0284: real time   26.1197
       DOS:  cpu time    0.0025: real time    0.0025
    --------------------------------------------
      LOOP:  cpu time   26.0309: real time   26.1221

 eigenvalue-minimisations  : 20480
 total energy-change (2. order) :-0.2838776E+04  (-0.2641589E+04)
 number of electron     330.0000000 magnetization      96.2400000
 augmentation part      330.0000000 magnetization      96.2400000

 Free energy of the ion-electron system (eV)
  ---------------------------------------------------
  alpha Z        PSCENC =      1220.95571582
  Ewald energy   TEWEN  =    497457.54926839
  -Hartree energ DENC   =   -522857.07047073
  -exchange      EXHF   =         0.00000000
  -V(xc)+E(xc)   XCENC  =       190.11544839
  PAW double counting   =     22767.62741590   -23084.86731573
  entropy T*S    EENTRO =         0.00139760
  eigenvalues    EBANDS =      -253.51850067
  atomic energy  EATOM  =     24445.13971712
  Solvation  Ediel_sol  =         0.00000000
  ---------------------------------------------------
  free energy    TOTEN  =      -114.06732391 eV

  energy without entropy =     -114.06872150  energy(sigma->0) =     -114.06778977


--------------------------------------------------------------------------------------------------------




--------------------------------------- Iteration      1(   3)  ---------------------------------------


     EDDAV:  cpu time   26.0299: real time   26.2837
       DOS:  cpu time    0.0027: real time    0.0027
    --------------------------------------------
      LOOP:  cpu time   26.0326: real time   26.2864

 eigenvalue-minimisations  : 21760
 total energy-change (2. order) :-0.2438368E+03  (-0.2037950E+03)
 number of electron     330.0000000 magnetization      96.2400000
 augmentation part      330.0000000 magnetization      96.2400000

 Free energy of the ion-electron system (eV)
  ---------------------------------------------------
  alpha Z        PSCENC =      1220.95571582
  Ewald energy   TEWEN  =    497457.54926839
  -Hartree energ DENC   =   -522857.07047073
  -exchange      EXHF   =         0.00000000
  -V(xc)+E(xc)   XCENC  =       190.11544839
  PAW double counting   =     22767.62741590   -23084.86731573
  entropy T*S    EENTRO =         0.02466306
  eigenvalues    EBANDS =      -497.37853732
  atomic energy  EATOM  =     24445.13971712
  Solvation  Ediel_sol  =         0.00000000
  ---------------------------------------------------
  free energy    TOTEN  =      -357.90409510 eV

  energy without entropy =     -357.92875816  energy(sigma->0) =     -357.91231612


--------------------------------------------------------------------------------------------------------




--------------------------------------- Iteration      1(   4)  ---------------------------------------


     EDDAV:  cpu time   26.0028: real time   26.0994
       DOS:  cpu time    0.0026: real time    0.0026
    --------------------------------------------
      LOOP:  cpu time   26.0054: real time   26.1020

 eigenvalue-minimisations  : 21712
 total energy-change (2. order) :-0.1014231E+02  (-0.9892632E+01)
 number of electron     330.0000000 magnetization      96.2400000
 augmentation part      330.0000000 magnetization      96.2400000

 Free energy of the ion-electron system (eV)
  ---------------------------------------------------
  alpha Z        PSCENC =      1220.95571582
  Ewald energy   TEWEN  =    497457.54926839
  -Hartree energ DENC   =   -522857.07047073
  -exchange      EXHF   =         0.00000000
  -V(xc)+E(xc)   XCENC  =       190.11544839
  PAW double counting   =     22767.62741590   -23084.86731573
  entropy T*S    EENTRO =         0.02846044
  eigenvalues    EBANDS =      -507.52464456
  atomic energy  EATOM  =     24445.13971712
  Solvation  Ediel_sol  =         0.00000000
  ---------------------------------------------------
  free energy    TOTEN  =      -368.04640496 eV

  energy without entropy =     -368.07486539  energy(sigma->0) =     -368.05589177


--------------------------------------------------------------------------------------------------------




--------------------------------------- Iteration      1(   5)  ---------------------------------------


     EDDAV:  cpu time   26.4775: real time   26.5924
       DOS:  cpu time    0.0028: real time    0.0028
    CHARGE:  cpu time    0.8514: real time    0.8550
    MIXING:  cpu time    0.0068: real time    0.0073
    --------------------------------------------
      LOOP:  cpu time   27.3385: real time   27.4575

 eigenvalue-minimisations  : 22400
 total energy-change (2. order) :-0.1921894E+00  (-0.1919783E+00)
 number of electron     330.0000189 magnetization      94.9940831
 augmentation part      149.4568980 magnetization      70.1124336

 Broyden mixing:
  rms(total) = 0.70279E+01    rms(broyden)= 0.70263E+01
  rms(prec ) = 0.71183E+01
  weight for this iteration     100.00

 Free energy of the ion-electron system (eV)
  ---------------------------------------------------
  alpha Z        PSCENC =      1220.95571582
  Ewald energy   TEWEN  =    497457.54926839
  -Hartree energ DENC   =   -522857.07047073
  -exchange      EXHF   =         0.00000000
  -V(xc)+E(xc)   XCENC  =       190.11544839
  PAW double counting   =     22767.62741590   -23084.86731573
  entropy T*S    EENTRO =         0.02851485
  eigenvalues    EBANDS =      -507.71688841
  atomic energy  EATOM  =     24445.13971712
  Solvation  Ediel_sol  =         0.00000000
  ---------------------------------------------------
  free energy    TOTEN  =      -368.23859440 eV

  energy without entropy =     -368.26710925  energy(sigma->0) =     -368.24809935


--------------------------------------------------------------------------------------------------------




--------------------------------------- Iteration      1(   6)  ---------------------------------------


    POTLOK:  cpu time    0.0794: real time    0.0923
    SETDIJ:  cpu time    0.0104: real time    0.0104
    EDDIAG:  cpu time    4.3858: real time    4.3980
  RMM-DIIS:  cpu time   14.0386: real time   14.0913
    ORTHCH:  cpu time    0.3878: real time    0.3878
       DOS:  cpu time    0.0029: real time    0.0029
    CHARGE:  cpu time    0.8518: real time    0.8554
    MIXING:  cpu time    0.0029: real time    0.0056
    --------------------------------------------
      LOOP:  cpu time   19.7596: real time   19.8438

 eigenvalue-minimisations  : 21449
 total energy-change (2. order) : 0.2470656E+01  (-0.9712960E-01)
 number of electron     330.0000185 magnetization      94.1461010
 augmentation part      149.5266935 magnetization      70.4313328

 Broyden mixing:
  rms(total) = 0.68344E+01    rms(broyden)= 0.68342E+01
  rms(prec ) = 0.69788E+01
  weight for this iteration     100.00

 eigenvalues of (default mixing * dielectric matrix)
  average eigenvalue GAMMA=   0.9011
  0.9011

 Free energy of the ion-electron system (eV)
  ---------------------------------------------------
  alpha Z        PSCENC =      1220.95571582
  Ewald energy   TEWEN  =    497457.54926839
  -Hartree energ DENC   =   -522953.75297854
  -exchange      EXHF   =         0.00000000
  -V(xc)+E(xc)   XCENC  =       189.24887562
  PAW double counting   =     22812.16257209   -23126.69709882
  entropy T*S    EENTRO =         0.02933040
  eigenvalues    EBANDS =      -410.40334096
  atomic energy  EATOM  =     24445.13971712
  Solvation  Ediel_sol  =         0.00000000
  ---------------------------------------------------
  free energy    TOTEN  =      -365.76793889 eV

  energy without entropy =     -365.79726929  energy(sigma->0) =     -365.77771569


--------------------------------------------------------------------------------------------------------




--------------------------------------- Iteration      1(   7)  ---------------------------------------


    POTLOK:  cpu time    0.0774: real time    0.0961
    SETDIJ:  cpu time    0.0094: real time    0.0094
    EDDIAG:  cpu time    4.3211: real time    4.3354
  RMM-DIIS:  cpu time   14.3122: real time   14.3606
    ORTHCH:  cpu time    0.3653: real time    0.3695
       DOS:  cpu time    0.0025: real time    0.0025
    CHARGE:  cpu time    0.8492: real time    0.8501
    MIXING:  cpu time    0.0013: real time    0.0017
    --------------------------------------------
      LOOP:  cpu time   19.9385: real time   20.0252

 eigenvalue-minimisations  : 21895
 total energy-change (2. order) :-0.2077569E+01  (-0.4760750E-01)
 number of electron     330.0000185 magnetization      92.9841939
 augmentation part      150.0877002 magnetization      70.3474313

 Broyden mixing:
  rms(total) = 0.70803E+01    rms(broyden)= 0.70802E+01
  rms(prec ) = 0.78850E+01
  weight for this iteration     100.00

 eigenvalues of (default mixing * dielectric matrix)
  average eigenvalue GAMMA=   0.8905
  1.5812  0.1998

 Free energy of the ion-electron system (eV)
  ---------------------------------------------------
  alpha Z        PSCENC =      1220.95571582
  Ewald energy   TEWEN  =    497457.54926839
  -Hartree energ DENC   =   -522867.12714246
  -exchange      EXHF   =         0.00000000
  -V(xc)+E(xc)   XCENC  =       188.61703019
  PAW double counting   =     22840.31065598   -23153.44031061
  entropy T*S    EENTRO =        -0.02223833
  eigenvalues    EBANDS =      -499.82820370
  atomic energy  EATOM  =     24445.13971712
  Solvation  Ediel_sol  =         0.00000000
  ---------------------------------------------------
  free energy    TOTEN  =      -367.84550760 eV

  energy without entropy =     -367.82326927  energy(sigma->0) =     -367.83809482


--------------------------------------------------------------------------------------------------------




--------------------------------------- Iteration      1(   8)  ---------------------------------------


    POTLOK:  cpu time    0.0821: real time    0.0966
    SETDIJ:  cpu time    0.0062: real time    0.0062
    EDDIAG:  cpu time    4.3352: real time    4.3483
  RMM-DIIS:  cpu time   14.2707: real time   14.3153
    ORTHCH:  cpu time    0.3482: real time    0.3482
       DOS:  cpu time    0.0028: real time    0.0028
    CHARGE:  cpu time    0.8466: real time    0.8495
    MIXING:  cpu time    0.0015: real time    0.0015
    --------------------------------------------
      LOOP:  cpu time   19.8933: real time   19.9685

 eigenvalue-minimisations  : 21744
 total energy-change (2. order) :-0.1241222E+01  (-0.4975985E-01)
 number of electron     330.0000206 magnetization      91.5495009
 augmentation part      150.4379830 magnetization      70.2458353

 Broyden mixing:
  rms(total) = 0.73226E+01    rms(broyden)= 0.73223E+01
  rms(prec ) = 0.87335E+01
  weight for this iteration     100.00

 eigenvalues of (default mixing * dielectric matrix)
  average eigenvalue GAMMA=   0.8339
  2.0557  0.3166  0.1294

 Free energy of the ion-electron system (eV)
  ---------------------------------------------------
  alpha Z        PSCENC =      1220.95571582
  Ewald energy   TEWEN  =    497457.54926839
  -Hartree energ DENC   =   -522880.07292579
  -exchange      EXHF   =         0.00000000
  -V(xc)+E(xc)   XCENC  =       187.68740657
  PAW double counting   =     22876.82547508   -23188.44096590
  entropy T*S    EENTRO =        -0.00486658
  eigenvalues    EBANDS =      -488.72555407
  atomic energy  EATOM  =     24445.13971712
  Solvation  Ediel_sol  =         0.00000000
  ---------------------------------------------------
  free energy    TOTEN  =      -369.08672935 eV

  energy without entropy =     -369.08186277  energy(sigma->0) =     -369.08510715


--------------------------------------------------------------------------------------------------------




--------------------------------------- Iteration      1(   9)  ---------------------------------------


    POTLOK:  cpu time    0.0910: real time    0.0917
    SETDIJ:  cpu time    0.0092: real time    0.0092
    EDDIAG:  cpu time    4.3273: real time    4.3390
  RMM-DIIS:  cpu time   14.1651: real time   14.2159
    ORTHCH:  cpu time    0.3865: real time    0.3875
       DOS:  cpu time    0.0028: real time    0.0028
    CHARGE:  cpu time    0.8555: real time    0.8563
    MIXING:  cpu time    0.0015: real time    0.0015
    --------------------------------------------
      LOOP:  cpu time   19.8390: real time   19.9039

 eigenvalue-minimisations  : 21621
 total energy-change (2. order) : 0.8162595E+01  (-0.5909252E-01)
 number of electron     330.0000182 magnetization      76.8997740
 augmentation part      151.0571176 magnetization      54.2783986

 Broyden mixing:
  rms(total) = 0.63274E+01    rms(broyden)= 0.63272E+01
  rms(prec ) = 0.64865E+01
  weight for this iteration     100.00

 eigenvalues of (default mixing * dielectric matrix)
  average eigenvalue GAMMA=   2.2906
  7.8871  0.9079  0.2538  0.1137

 Free energy of the ion-electron system (eV)
  ---------------------------------------------------
  alpha Z        PSCENC =      1220.95571582
  Ewald energy   TEWEN  =    497457.54926839
  -Hartree energ DENC   =   -522943.49840040
  -exchange      EXHF   =         0.00000000
  -V(xc)+E(xc)   XCENC  =       186.57834823
  PAW double counting   =     22918.95640509   -23228.84170057
  entropy T*S    EENTRO =         0.03208236
  eigenvalues    EBANDS =      -417.79557087
  atomic energy  EATOM  =     24445.13971712
  Solvation  Ediel_sol  =         0.00000000
  ---------------------------------------------------
  free energy    TOTEN  =      -360.92413484 eV

  energy without entropy =     -360.95621719  energy(sigma->0) =     -360.93482896


--------------------------------------------------------------------------------------------------------




--------------------------------------- Iteration      1(  10)  ---------------------------------------


    POTLOK:  cpu time    0.0764: real time    0.0945
    SETDIJ:  cpu time    0.0083: real time    0.0083
    EDDIAG:  cpu time    4.2946: real time    4.3036
  RMM-DIIS:  cpu time   13.7587: real time   13.8001
    ORTHCH:  cpu time    0.3763: real time    0.3772
       DOS:  cpu time    0.0028: real time    0.0028
    CHARGE:  cpu time    0.8504: real time    0.8506
    MIXING:  cpu time    0.0017: real time    0.0017
    --------------------------------------------
      LOOP:  cpu time   19.3693: real time   19.4388

 eigenvalue-minimisations  : 20916
 total energy-change (2. order) : 0.1929301E+02  (-0.3846587E+01)
 number of electron     330.0000205 magnetization      69.1366207
 augmentation part      158.4278740 magnetization      51.1634907

 Broyden mixing:
  rms(total) = 0.45511E+01    rms(broyden)= 0.45509E+01
  rms(prec ) = 0.46652E+01
  weight for this iteration     100.00

 eigenvalues of (default mixing * dielectric matrix)
  average eigenvalue GAMMA=   3.0294
 13.0316  0.8752  0.8752  0.2528  0.1121

 Free energy of the ion-electron system (eV)
  ---------------------------------------------------
  alpha Z        PSCENC =      1220.95571582
  Ewald energy   TEWEN  =    497457.54926839
  -Hartree energ DENC   =   -522842.89344857
  -exchange      EXHF   =         0.00000000
  -V(xc)+E(xc)   XCENC  =       177.69721501
  PAW double counting   =     23421.85578827   -23709.99336743
  entropy T*S    EENTRO =         0.02438136
  eigenvalues    EBANDS =      -511.96639021
  atomic energy  EATOM  =     24445.13971712
  Solvation  Ediel_sol  =         0.00000000
  ---------------------------------------------------
  free energy    TOTEN  =      -341.63112023 eV

  energy without entropy =     -341.65550159  energy(sigma->0) =     -341.63924735


--------------------------------------------------------------------------------------------------------




--------------------------------------- Iteration      1(  11)  ---------------------------------------


    POTLOK:  cpu time    0.0935: real time    0.0941
    SETDIJ:  cpu time    0.0096: real time    0.0096
    EDDIAG:  cpu time    4.3256: real time    4.3352
  RMM-DIIS:  cpu time   13.8251: real time   13.8704
    ORTHCH:  cpu time    0.3659: real time    0.3672
       DOS:  cpu time    0.0029: real time    0.0029
    CHARGE:  cpu time    0.8451: real time    0.8460
    MIXING:  cpu time    0.0017: real time    0.0017
    --------------------------------------------
      LOOP:  cpu time   19.4694: real time   19.5270

 eigenvalue-minimisations  : 21027
 total energy-change (2. order) : 0.9869422E+01  (-0.2038435E+01)
 number of electron     330.0000209 magnetization      66.0594499
 augmentation part      163.6103327 magnetization      50.7402498

 Broyden mixing:
  rms(total) = 0.37416E+01    rms(broyden)= 0.37415E+01
  rms(prec ) = 0.37753E+01
  weight for this iteration     100.00

 eigenvalues of (default mixing * dielectric matrix)
  average eigenvalue GAMMA=   3.0828
 15.1838  1.1401  1.1401  0.6681  0.2525  0.1121

 Free energy of the ion-electron system (eV)
  ---------------------------------------------------
  alpha Z        PSCENC =      1220.95571582
  Ewald energy   TEWEN  =    497457.54926839
  -Hartree energ DENC   =   -522790.17420823
  -exchange      EXHF   =         0.00000000
  -V(xc)+E(xc)   XCENC  =       174.57615537
  PAW double counting   =     23758.62605933   -24034.01397303
  entropy T*S    EENTRO =         0.01446883
  eigenvalues    EBANDS =      -564.43490155
  atomic energy  EATOM  =     24445.13971712
  Solvation  Ediel_sol  =         0.00000000
  ---------------------------------------------------
  free energy    TOTEN  =      -331.76169794 eV

  energy without entropy =     -331.77616677  energy(sigma->0) =     -331.76652088


--------------------------------------------------------------------------------------------------------




--------------------------------------- Iteration      1(  12)  ---------------------------------------


    POTLOK:  cpu time    0.0828: real time    0.0967
    SETDIJ:  cpu time    0.0097: real time    0.0097
    EDDIAG:  cpu time    4.3356: real time    4.3464
  RMM-DIIS:  cpu time   13.8684: real time   13.9154
    ORTHCH:  cpu time    0.3812: real time    0.3821
       DOS:  cpu time    0.0030: real time    0.0030
    CHARGE:  cpu time    0.8461: real time    0.8494
    MIXING:  cpu time    0.0018: real time    0.0018
    --------------------------------------------
      LOOP:  cpu time   19.5285: real time   19.6043

 eigenvalue-minimisations  : 21112
 total energy-change (2. order) : 0.5259107E+01  (-0.9710570E+00)
 number of electron     330.0000215 magnetization      66.3901995
 augmentation part      167.4456827 magnetization      52.3645215

 Broyden mixing:
  rms(total) = 0.31873E+01    rms(broyden)= 0.31873E+01
  rms(prec ) = 0.32076E+01
  weight for this iteration     100.00

 eigenvalues of (default mixing * dielectric matrix)
  average eigenvalue GAMMA=   3.4043
 18.1209  1.8899  1.8899  0.2525  0.1121  0.8358  0.7288

 Free energy of the ion-electron system (eV)
  ---------------------------------------------------
  alpha Z        PSCENC =      1220.95571582
  Ewald energy   TEWEN  =    497457.54926839
  -Hartree energ DENC   =   -522741.63038581
  -exchange      EXHF   =         0.00000000
  -V(xc)+E(xc)   XCENC  =       173.37802116
  PAW double counting   =     24035.48397781   -24303.22345047
  entropy T*S    EENTRO =         0.00652074
  eigenvalues    EBANDS =      -614.16197558
  atomic energy  EATOM  =     24445.13971712
  Solvation  Ediel_sol  =         0.00000000
  ---------------------------------------------------
  free energy    TOTEN  =      -326.50259082 eV

  energy without entropy =     -326.50911156  energy(sigma->0) =     -326.50476440


--------------------------------------------------------------------------------------------------------




--------------------------------------- Iteration      1(  13)  ---------------------------------------


    POTLOK:  cpu time    0.0936: real time    0.0937
    SETDIJ:  cpu time    0.0096: real time    0.0096
    EDDIAG:  cpu time    4.3158: real time    4.3292
  RMM-DIIS:  cpu time   13.8553: real time   13.8997
    ORTHCH:  cpu time    0.3950: real time    0.3951
       DOS:  cpu time    0.0028: real time    0.0028
    CHARGE:  cpu time    0.8442: real time    0.8470
    MIXING:  cpu time    0.0018: real time    0.0018
    --------------------------------------------
      LOOP:  cpu time   19.5181: real time   19.5789

 eigenvalue-minimisations  : 21121
 total energy-change (2. order) : 0.2352308E+01  (-0.7229792E+00)
 number of electron     330.0000220 magnetization      70.6575567
 augmentation part      171.1058388 magnetization      56.9921413

 Broyden mixing:
  rms(total) = 0.28002E+01    rms(broyden)= 0.28001E+01
  rms(prec ) = 0.28068E+01
  weight for this iteration     100.00

 eigenvalues of (default mixing * dielectric matrix)
  average eigenvalue GAMMA=   3.6720
 19.7588  3.3219  3.3219  0.1121  0.2525  0.9682  0.9682  0.6722

 Free energy of the ion-electron system (eV)
  ---------------------------------------------------
  alpha Z        PSCENC =      1220.95571582
  Ewald energy   TEWEN  =    497457.54926839
  -Hartree energ DENC   =   -522696.81621921
  -exchange      EXHF   =         0.00000000
  -V(xc)+E(xc)   XCENC  =       173.12314342
  PAW double counting   =     24366.30199177   -24628.80871952
  entropy T*S    EENTRO =        -0.02108856
  eigenvalues    EBANDS =      -661.57409207
  atomic energy  EATOM  =     24445.13971712
  Solvation  Ediel_sol  =         0.00000000
  ---------------------------------------------------
  free energy    TOTEN  =      -324.15028283 eV

  energy without entropy =     -324.12919427  energy(sigma->0) =     -324.14325331


--------------------------------------------------------------------------------------------------------




--------------------------------------- Iteration      1(  14)  ---------------------------------------


    POTLOK:  cpu time    0.0776: real time    0.0939
    SETDIJ:  cpu time    0.0096: real time    0.0096
    EDDIAG:  cpu time    4.2438: real time    4.2559
  RMM-DIIS:  cpu time   13.9301: real time   13.9757
    ORTHCH:  cpu time    0.3837: real time    0.3837
       DOS:  cpu time    0.0029: real time    0.0029
    CHARGE:  cpu time    0.8491: real time    0.8528
    MIXING:  cpu time    0.0020: real time    0.0020
    --------------------------------------------
      LOOP:  cpu time   19.4986: real time   19.5764

 eigenvalue-minimisations  : 21274
 total energy-change (2. order) :-0.9516559E+00  (-0.1457810E+00)
 number of electron     330.0000222 magnetization      77.2621425
 augmentation part      172.5425277 magnetization      63.0062288

 Broyden mixing:
  rms(total) = 0.26718E+01    rms(broyden)= 0.26717E+01
  rms(prec ) = 0.26806E+01
  weight for this iteration     100.00

 eigenvalues of (default mixing * dielectric matrix)
  average eigenvalue GAMMA=   4.8272
 25.6977  9.4294  4.1485  0.1121  0.2525  1.1052  1.1052  0.9188  0.6757

 Free energy of the ion-electron system (eV)
  ---------------------------------------------------
  alpha Z        PSCENC =      1220.95571582
  Ewald energy   TEWEN  =    497457.54926839
  -Hartree energ DENC   =   -522695.81493848
  -exchange      EXHF   =         0.00000000
  -V(xc)+E(xc)   XCENC  =       174.21444870
  PAW double counting   =     24597.09856349   -24860.55500943
  entropy T*S    EENTRO =        -0.03596958
  eigenvalues    EBANDS =      -663.65373478
  atomic energy  EATOM  =     24445.13971712
  Solvation  Ediel_sol  =         0.00000000
  ---------------------------------------------------
  free energy    TOTEN  =      -325.10193875 eV

  energy without entropy =     -325.06596917  energy(sigma->0) =     -325.08994889


--------------------------------------------------------------------------------------------------------




--------------------------------------- Iteration      1(  15)  ---------------------------------------


    POTLOK:  cpu time    0.0934: real time    0.0937
    SETDIJ:  cpu time    0.0095: real time    0.0095
    EDDIAG:  cpu time    4.3471: real time    4.3577
  RMM-DIIS:  cpu time   13.9506: real time   14.0063
    ORTHCH:  cpu time    0.3823: real time    0.3826
       DOS:  cpu time    0.0029: real time    0.0029
    CHARGE:  cpu time    0.8707: real time    0.8738
    MIXING:  cpu time    0.0021: real time    0.0021
    --------------------------------------------
      LOOP:  cpu time   19.6586: real time   19.7285

 eigenvalue-minimisations  : 21406
 total energy-change (2. order) :-0.1345833E+01  (-0.2448717E-01)
 number of electron     330.0000222 magnetization      93.1038888
 augmentation part      172.8325139 magnetization      77.8587113

 Broyden mixing:
  rms(total) = 0.24716E+01    rms(broyden)= 0.24716E+01
  rms(prec ) = 0.24771E+01
  weight for this iteration     100.00

 eigenvalues of (default mixing * dielectric matrix)
  average eigenvalue GAMMA=   5.3512
 30.9825 12.4198  4.1166  1.8150  0.1121  0.2525  1.0881  1.0881  0.9624  0.6753

 Free energy of the ion-electron system (eV)
  ---------------------------------------------------
  alpha Z        PSCENC =      1220.95571582
  Ewald energy   TEWEN  =    497457.54926839
  -Hartree energ DENC   =   -522723.71951382
  -exchange      EXHF   =         0.00000000
  -V(xc)+E(xc)   XCENC  =       176.33372225
  PAW double counting   =     24804.34099043   -25072.34829531
  entropy T*S    EENTRO =        -0.03482652
  eigenvalues    EBANDS =      -634.66455025
  atomic energy  EATOM  =     24445.13971712
  Solvation  Ediel_sol  =         0.00000000
  ---------------------------------------------------
  free energy    TOTEN  =      -326.44777188 eV

  energy without entropy =     -326.41294537  energy(sigma->0) =     -326.43616305


--------------------------------------------------------------------------------------------------------




--------------------------------------- Iteration      1(  16)  ---------------------------------------


    POTLOK:  cpu time    0.0817: real time    0.0937
    SETDIJ:  cpu time    0.0100: real time    0.0100
    EDDIAG:  cpu time    4.2922: real time    4.3061
  RMM-DIIS:  cpu time   14.0255: real time   14.0703
    ORTHCH:  cpu time    0.3750: real time    0.3763
       DOS:  cpu time    0.0028: real time    0.0028
    CHARGE:  cpu time    0.8452: real time    0.8460
    MIXING:  cpu time    0.0023: real time    0.0023
    --------------------------------------------
      LOOP:  cpu time   19.6348: real time   19.7075

 eigenvalue-minimisations  : 21386
 total energy-change (2. order) :-0.1571667E+01  (-0.7701029E-01)
 number of electron     330.0000222 magnetization      92.8893516
 augmentation part      173.6915759 magnetization      75.2255332

 Broyden mixing:
  rms(total) = 0.21667E+01    rms(broyden)= 0.21665E+01
  rms(prec ) = 0.21715E+01
  weight for this iteration     100.00

 eigenvalues of (default mixing * dielectric matrix)
  average eigenvalue GAMMA=   5.3054
 33.4836 12.5496  4.6566  2.3663  0.1121  0.2525  1.3112  0.6759  1.0326  1.0326
  0.8868

 Free energy of the ion-electron system (eV)
  ---------------------------------------------------
  alpha Z        PSCENC =      1220.95571582
  Ewald energy   TEWEN  =    497457.54926839
  -Hartree energ DENC   =   -522790.65569142
  -exchange      EXHF   =         0.00000000
  -V(xc)+E(xc)   XCENC  =       183.35211857
  PAW double counting   =     25434.92293113   -25715.97745305
  entropy T*S    EENTRO =        -0.03935312
  eigenvalues    EBANDS =      -563.26669273
  atomic energy  EATOM  =     24445.13971712
  Solvation  Ediel_sol  =         0.00000000
  ---------------------------------------------------
  free energy    TOTEN  =      -328.01943929 eV

  energy without entropy =     -327.98008617  energy(sigma->0) =     -328.00632158


--------------------------------------------------------------------------------------------------------




--------------------------------------- Iteration      1(  17)  ---------------------------------------


    POTLOK:  cpu time    0.0935: real time    0.0938
    SETDIJ:  cpu time    0.0103: real time    0.0103
    EDDIAG:  cpu time    4.3136: real time    4.3284
  RMM-DIIS:  cpu time   14.0530: real time   14.0950
    ORTHCH:  cpu time    0.3438: real time    0.3452
       DOS:  cpu time    0.0026: real time    0.0026
    CHARGE:  cpu time    0.8473: real time    0.8498
    MIXING:  cpu time    0.0024: real time    0.0024
    --------------------------------------------
      LOOP:  cpu time   19.6664: real time   19.7274

 eigenvalue-minimisations  : 21662
 total energy-change (2. order) :-0.2672753E-01  (-0.3559618E-02)
 number of electron     330.0000222 magnetization      85.5230493
 augmentation part      173.7327263 magnetization      67.8222400

 Broyden mixing:
  rms(total) = 0.21791E+01    rms(broyden)= 0.21791E+01
  rms(prec ) = 0.21844E+01
  weight for this iteration     100.00

 eigenvalues of (default mixing * dielectric matrix)
  average eigenvalue GAMMA=   4.7850
 34.5102  7.6157  5.8570  2.7242  0.1121  0.2525  1.5442  0.6757  1.1746  0.9137
  1.0199  1.0199

 Free energy of the ion-electron system (eV)
  ---------------------------------------------------
  alpha Z        PSCENC =      1220.95571582
  Ewald energy   TEWEN  =    497457.54926839
  -Hartree energ DENC   =   -522789.77894529
  -exchange      EXHF   =         0.00000000
  -V(xc)+E(xc)   XCENC  =       183.22474435
  PAW double counting   =     25421.47112661   -25702.47364729
  entropy T*S    EENTRO =        -0.03870106
  eigenvalues    EBANDS =      -564.09544548
  atomic energy  EATOM  =     24445.13971712
  Solvation  Ediel_sol  =         0.00000000
  ---------------------------------------------------
  free energy    TOTEN  =      -328.04616682 eV

  energy without entropy =     -328.00746577  energy(sigma->0) =     -328.03326647


--------------------------------------------------------------------------------------------------------




--------------------------------------- Iteration      1(  18)  ---------------------------------------


    POTLOK:  cpu time    0.0814: real time    0.0954
    SETDIJ:  cpu time    0.0096: real time    0.0096
    EDDIAG:  cpu time    4.3452: real time    4.3562
  RMM-DIIS:  cpu time   13.4472: real time   13.6694
    ORTHCH:  cpu time    0.3850: real time    0.3855
       DOS:  cpu time    0.0029: real time    0.0029
    CHARGE:  cpu time    0.8440: real time    0.8461
    MIXING:  cpu time    0.0044: real time    0.0044
    --------------------------------------------
      LOOP:  cpu time   19.1198: real time   19.3695

 eigenvalue-minimisations  : 20828
 total energy-change (2. order) : 0.2509643E+00  (-0.6357138E-01)
 number of electron     330.0000225 magnetization      88.9822249
 augmentation part      174.6323382 magnetization      72.6200678

 Broyden mixing:
  rms(total) = 0.23164E+01    rms(broyden)= 0.23164E+01
  rms(prec ) = 0.23205E+01
  weight for this iteration     100.00

 eigenvalues of (default mixing * dielectric matrix)
  average eigenvalue GAMMA=   4.9870
 36.4751  8.3482  8.3482  2.7650  1.9585  1.9585  0.1121  0.2525  1.0975  1.0975
  0.6755  0.9376  0.8041

 Free energy of the ion-electron system (eV)
  ---------------------------------------------------
  alpha Z        PSCENC =      1220.95571582
  Ewald energy   TEWEN  =    497457.54926839
  -Hartree energ DENC   =   -522754.81904716
  -exchange      EXHF   =         0.00000000
  -V(xc)+E(xc)   XCENC  =       180.30195861
  PAW double counting   =     25388.48487721   -25664.56415026
  entropy T*S    EENTRO =        -0.04537310
  eigenvalues    EBANDS =      -600.79816911
  atomic energy  EATOM  =     24445.13971712
  Solvation  Ediel_sol  =         0.00000000
  ---------------------------------------------------
  free energy    TOTEN  =      -327.79520248 eV

  energy without entropy =     -327.74982938  energy(sigma->0) =     -327.78007811


--------------------------------------------------------------------------------------------------------




[...]
   42        0.474   0.300   6.204   6.978
--------------------------------------------------
tot         21.253  20.349 255.526 297.128



 magnetization (x)

# of ion       s       p       d       tot
------------------------------------------
    1        0.008   0.004   2.851   2.863
    2        0.002  -0.003   2.642   2.641
    3       -0.012  -0.036   2.419   2.372
    4       -0.012  -0.052   2.559   2.496
    5       -0.016  -0.057   2.339   2.265
    6       -0.014  -0.058   2.386   2.314
    7       -0.015  -0.058   2.302   2.230
    8       -0.015  -0.061   2.350   2.275
    9       -0.014  -0.059   2.270   2.197
   10       -0.015  -0.059   2.267   2.193
   11       -0.014  -0.059   2.296   2.223
   12       -0.016  -0.060   2.325   2.249
   13       -0.014  -0.056   2.271   2.201
   14       -0.015  -0.057   2.325   2.253
   15       -0.013  -0.049   2.263   2.201
   16       -0.012  -0.054   2.571   2.506
   17       -0.020  -0.057   2.075   1.998
   18       -0.011  -0.040   2.683   2.632
   19       -0.010  -0.030   2.571   2.531
   20        0.002  -0.000   0.000   0.002
   21       -0.010  -0.031   2.663   2.621
   22       -0.010  -0.030   2.579   2.540
   23       -0.012  -0.039   2.691   2.640
   24       -0.021  -0.056   2.066   1.989
   25       -0.011  -0.054   2.569   2.503
   26       -0.012  -0.049   2.276   2.214
   27       -0.015  -0.056   2.344   2.273
   28       -0.013  -0.055   2.263   2.194
   29       -0.016  -0.060   2.289   2.213
   30       -0.014  -0.060   2.273   2.199
   31       -0.015  -0.059   2.278   2.203
   32       -0.014  -0.059   2.276   2.203
   33       -0.015  -0.059   2.278   2.204
   34       -0.014  -0.060   2.248   2.174
   35       -0.016  -0.061   2.343   2.267
   36       -0.014  -0.058   2.309   2.236
   37       -0.014  -0.058   2.381   2.310
   38       -0.016  -0.057   2.331   2.258
   39       -0.012  -0.052   2.559   2.495
   40       -0.011  -0.036   2.420   2.373
   41        0.001  -0.004   2.637   2.634
   42        0.008   0.003   2.843   2.854
--------------------------------------------------
tot         -0.492  -1.948  98.680  96.241

    CHARGE:  cpu time    0.8496: real time    0.8527
    FORLOC:  cpu time    0.0049: real time    0.0050
    FORNL :  cpu time    5.6491: real time    5.6751
    STRESS:  cpu time   16.8396: real time   16.9096
    FORCOR:  cpu time    0.0647: real time    0.0647
    FORHAR:  cpu time    0.0111: real time    0.0111
    MIXING:  cpu time    0.0073: real time    0.0073
    OFIELD:  cpu time    0.0010: real time    0.0015

  FORCE on cell =-STRESS in cart. coord.  units (eV):
  Direction    XX          YY          ZZ          XY          YZ          ZX
  --------------------------------------------------------------------------------------
  Alpha Z  1220.95572  1220.95572  1220.95572
  Ewald  513301.23327513273.05368************    -0.00877    -6.08137    -0.00215
  Hartree519969.86289519954.05693************    -0.00239    -2.34369    -0.00021
  E(xc)   -1637.58730 -1637.31102 -1637.43495     0.00004     0.04820     0.00001
  Local  ************************************     0.00993     8.12432     0.00187
  n-local -1089.49537 -1088.78762 -1093.44734    -0.00018    -0.01579     0.00013
  augment  1591.59781  1589.98580  1589.00599     0.00032    -0.01987     0.00002
  Kinetic  3007.97026  3004.84772  3012.35244     0.00064    -0.02303     0.00038
  Fock        0.00000     0.00000     0.00000     0.00000     0.00000     0.00000
  -------------------------------------------------------------------------------------
  Total      -2.72942    -6.50200    -2.10622    -0.00040    -0.31124     0.00005
  in kB      -4.56160   -10.86659    -3.52006    -0.00067    -0.52017     0.00008
  external pressure =       -6.32 kB  Pullay stress =        0.00 kB


 VOLUME and BASIS-vectors are now :
 -----------------------------------------------------------------------------
  energy-cutoff  :      400.00
  volume of cell :      958.66
      direct lattice vectors                 reciprocal lattice vectors
     4.004839000  0.000000000  0.000000000     0.249697928  0.000000000  0.000000000
     0.000000000  4.696090000  0.000000000     0.000000000  0.212943108  0.000000000
     0.000000000  0.000000000 50.973280000     0.000000000  0.000000000  0.019618121

  length of vectors
     4.004839000  4.696090000 50.973280000     0.249697928  0.212943108  0.019618121


 FORCES acting on ions
    electron-ion (+dipol)            ewald-force                    non-local-force                 convergence-correction
 -----------------------------------------------------------------------------------------------
   0.350E-02 0.408E+02 0.585E+04   -.367E-02 -.393E+02 -.585E+04   0.734E-05 -.139E+01 -.749E+01   0.138E-04 -.107E+00 -.193E+00
   -.641E-02 -.417E+02 0.572E+04   0.656E-02 0.408E+02 -.572E+04   -.261E-03 0.769E+00 -.443E+01   0.447E-04 0.759E-01 -.117E-01
   -.346E-02 -.198E+02 0.545E+04   0.358E-02 0.196E+02 -.545E+04   0.582E-04 0.559E-01 -.110E+01   0.324E-04 0.733E-01 0.108E+00
   0.510E-02 0.194E+02 0.520E+04   -.524E-02 -.194E+02 -.520E+04   0.176E-04 0.863E-01 0.867E-02   -.891E-04 -.658E-01 0.202E+00
   -.314E-03 0.818E+01 0.479E+04   0.315E-03 -.827E+01 -.479E+04   -.642E-04 0.115E+00 -.871E+00   0.465E-04 -.176E-01 0.292E+00
   0.432E-02 -.550E+01 0.450E+04   -.431E-02 0.551E+01 -.450E+04   -.136E-03 -.250E-01 -.388E+00   0.132E-04 0.115E-01 0.177E+00
   -.525E-02 -.373E+01 0.419E+04   0.529E-02 0.369E+01 -.419E+04   0.387E-04 0.427E-01 -.412E+00   -.377E-04 0.670E-02 0.110E+00
   0.722E-02 0.222E+01 0.389E+04   -.740E-02 -.215E+01 -.389E+04   -.948E-05 -.563E-01 -.133E+00   -.706E-05 -.249E-03 0.784E-01
   -.123E-01 0.871E+00 0.357E+04   0.126E-01 -.929E+00 -.357E+04   0.200E-03 0.615E-01 -.636E-01   0.433E-04 0.168E-02 0.127E+00
   0.117E-01 -.402E+00 0.325E+04   -.119E-01 0.453E+00 -.325E+04   -.219E-03 -.382E-01 -.418E-01   -.103E-04 -.883E-02 0.140E+00
   -.218E-02 -.859E+00 0.294E+04   0.218E-02 0.909E+00 -.294E+04   -.199E-05 -.448E-01 0.786E-01   -.201E-04 -.513E-03 0.146E+00
   -.204E-02 -.107E+01 0.262E+04   0.219E-02 0.941E+00 -.262E+04   -.406E-04 0.125E+00 0.148E+00   -.447E-04 0.388E-02 0.115E+00
   -.308E-02 0.301E+01 0.232E+04   0.307E-02 -.294E+01 -.232E+04   0.141E-04 -.750E-01 0.347E+00   0.809E-04 0.875E-02 0.251E-01
   0.364E-02 -.130E+01 0.199E+04   -.371E-02 0.123E+01 -.199E+04   0.280E-04 0.573E-01 0.171E-01   -.330E-04 0.184E-01 -.311E-01
   0.286E-02 -.498E+01 0.171E+04   -.299E-02 0.517E+01 -.171E+04   0.894E-04 -.156E+00 0.776E+00   0.470E-04 -.326E-01 -.139E+00
   -.884E-02 -.720E+00 0.132E+04   0.913E-02 0.840E+00 -.132E+04   0.457E-04 -.111E+00 0.186E+00   -.915E-04 -.266E-02 -.331E-01
   0.657E-02 0.188E+02 0.112E+04   -.667E-02 -.191E+02 -.112E+04   0.151E-03 0.409E+00 -.434E+00   0.193E-05 -.363E-01 -.965E-01
   -.117E-01 0.932E+01 0.748E+03   0.115E-01 -.913E+01 -.749E+03   0.246E-03 -.187E+00 0.163E+01   0.573E-04 -.745E-02 -.703E-02
   0.104E-01 -.618E+02 0.616E+03   -.958E-02 0.607E+02 -.618E+03   -.989E-03 0.100E+01 0.175E+01   0.647E-04 0.165E+00 0.371E-01
   0.121E-02 -.249E+01 0.760E+02   -.129E-02 0.257E+01 -.760E+02   0.595E-04 -.817E-01 0.198E-01   0.944E-05 0.204E-02 -.952E-02
   0.830E-03 0.812E+02 0.303E+03   -.820E-03 -.790E+02 -.303E+03   0.513E-05 -.201E+01 -.201E-01   -.883E-04 -.207E+00 -.428E-01
   -.597E-02 -.610E+02 -.786E+01   0.541E-02 0.599E+02 0.965E+01   0.596E-03 0.101E+01 -.171E+01   -.140E-03 0.152E+00 -.879E-01
   0.833E-02 0.849E+01 -.138E+03   -.829E-02 -.837E+01 0.140E+03   -.239E-03 -.128E+00 -.160E+01   0.789E-04 0.611E-02 -.257E-01
   -.367E-02 0.183E+02 -.509E+03   0.379E-02 -.187E+02 0.508E+03   -.125E-03 0.415E+00 0.454E+00   -.182E-04 -.286E-01 0.711E-01
   0.110E-02 -.447E+00 -.707E+03   -.120E-02 0.554E+00 0.708E+03   -.481E-05 -.848E-01 -.275E+00   0.477E-04 -.201E-01 0.856E-02
   -.461E-03 -.481E+01 -.110E+04   0.488E-03 0.500E+01 0.110E+04   -.550E-04 -.172E+00 -.804E+00   0.942E-05 -.273E-01 0.102E+00
   0.182E-02 -.116E+01 -.138E+04   -.181E-02 0.108E+01 0.138E+04   0.221E-04 0.543E-01 -.486E-02   -.684E-04 0.253E-01 -.236E-01
   -.259E-02 0.267E+01 -.172E+04   0.257E-02 -.256E+01 0.172E+04   0.723E-04 -.119E+00 -.290E+00   0.432E-04 0.281E-02 -.844E-01
   0.803E-05 -.144E+01 -.201E+04   -.253E-05 0.134E+01 0.201E+04   0.248E-04 0.953E-01 -.756E-01   0.431E-04 0.261E-02 -.192E+00
   -.174E-02 0.203E+00 -.234E+04   0.177E-02 -.194E+00 0.234E+04   0.154E-04 -.113E-01 -.113E+00   0.300E-05 0.108E-02 -.224E+00
   0.453E-02 0.128E+01 -.265E+04   -.461E-02 -.131E+01 0.265E+04   -.417E-04 0.255E-01 -.565E-01   -.728E-04 -.230E-02 -.232E+00
   -.240E-02 -.976E+00 -.296E+04   0.252E-02 0.963E+00 0.296E+04   0.317E-04 0.762E-02 -.634E-01   -.227E-04 0.353E-02 -.205E+00
   -.154E-02 -.156E+01 -.328E+04   0.152E-02 0.159E+01 0.328E+04   0.142E-04 -.257E-01 0.433E-01   0.692E-04 -.128E-02 -.129E+00
   0.384E-02 0.134E+01 -.359E+04   -.396E-02 -.138E+01 0.359E+04   -.150E-05 0.404E-01 0.740E-01   -.621E-05 -.436E-02 -.575E-01
   -.545E-02 0.339E+01 -.392E+04   0.561E-02 -.331E+01 0.392E+04   0.955E-04 -.764E-01 0.132E+00   0.211E-05 -.761E-02 0.262E-01
   0.295E-02 -.385E+01 -.422E+04   -.302E-02 0.380E+01 0.422E+04   -.122E-03 0.428E-01 0.422E+00   -.213E-04 0.107E-01 0.113E-01
   -.370E-03 -.612E+01 -.453E+04   0.342E-03 0.612E+01 0.453E+04   0.719E-05 -.258E-01 0.383E+00   -.916E-05 0.194E-01 -.677E-01
   -.661E-04 0.832E+01 -.481E+04   0.122E-03 -.841E+01 0.481E+04   0.231E-04 0.118E+00 0.858E+00   0.126E-04 -.196E-01 -.229E+00
   -.364E-03 0.195E+02 -.523E+04   0.343E-03 -.195E+02 0.523E+04   0.259E-04 0.105E+00 -.214E-01   -.305E-04 -.701E-01 -.171E+00
   0.166E-02 -.202E+02 -.548E+04   -.171E-02 0.201E+02 0.547E+04   -.558E-06 0.684E-01 0.110E+01   0.275E-04 0.767E-01 -.102E+00
   -.359E-02 -.416E+02 -.574E+04   0.370E-02 0.407E+02 0.574E+04   0.408E-04 0.746E+00 0.437E+01   -.437E-04 0.793E-01 0.109E-01
   0.233E-02 0.411E+02 -.588E+04   -.243E-02 -.396E+02 0.587E+04   -.582E-04 -.141E+01 0.751E+01   0.825E-04 -.110E+00 0.188E+00
 -----------------------------------------------------------------------------------------------
   0.503E-04 0.813E+00 0.536E+00   -.246E-12 0.568E-13 -.455E-11   -.441E-03 -.782E+00 -.107E+00   0.202E-04 -.295E-01 -.421E+00


 POSITION                                       TOTAL-FORCE (eV/Angst)
 -----------------------------------------------------------------------------------
      4.00463      0.16726     12.96058        -0.000133      0.002931      0.003263
      2.00217      1.53727     13.43903        -0.000057     -0.002709      0.005892
      4.00460      2.70062     14.07448         0.000216     -0.006536      0.001241
      2.00223      4.03613     14.54371        -0.000210     -0.001192      0.002722
      4.00466      0.60187     15.26139        -0.000008      0.002683     -0.002177
      2.00224      1.89821     15.85637        -0.000109     -0.002296      0.000804
      4.00466      3.17295     16.46777         0.000055      0.005622      0.000739
      2.00225      4.45287     17.06253        -0.000189      0.003816      0.006611
      4.00463      1.04060     17.67809         0.000550      0.005124     -0.000913
      2.00227      2.32091     18.28677        -0.000473      0.004251     -0.002711
      4.00467      3.60475     18.88124        -0.000019      0.004527     -0.000186
      2.00222      0.18688     19.49327         0.000078      0.001655     -0.001733
      4.00465      1.47435     20.08827         0.000089      0.002265     -0.000111
      2.00226      2.75693     20.71644        -0.000063      0.002596      0.002074
      4.00467      4.04876     21.30257         0.000016     -0.001772      0.002918
      2.00223      0.62702     21.97825         0.000253      0.005752     -0.000712
      4.00468      1.94310     22.45967         0.000060      0.005632      0.000225
      2.00227      3.10011     23.24438         0.000139     -0.000622      0.002460
      4.00469      4.54795     23.61307        -0.000129     -0.002802      0.000545
      2.00242      0.79993     24.87648        -0.000008      0.001863     -0.001450
      4.00483      2.44685     24.87064        -0.000064      0.005767     -0.002409
      0.00010      4.56722     26.13117        -0.000091     -0.004380     -0.003324
      2.00250      3.12360     26.49699        -0.000110     -0.002624     -0.000874
      0.00006      1.97023     27.28729        -0.000014      0.000166     -0.000379
      2.00248      0.65789     27.77006        -0.000044      0.001599     -0.001625
      0.00004      4.08379     28.44258        -0.000010     -0.003946     -0.000187
      2.00245      2.79870     29.02572        -0.000033      0.000152      0.001251
      0.00001      1.51964     29.65194         0.000100     -0.004788      0.000884
      2.00242      0.23632     30.24596         0.000082     -0.003170      0.001936
      0.00000      3.65664     30.86497         0.000053     -0.001110      0.002322
      2.00243      2.37417     31.45970        -0.000192     -0.005460      0.001612
      4.00482      1.09381     32.06782         0.000142     -0.002846      0.001835
      2.00240      4.50903     32.66668         0.000075     -0.002132     -0.002214
      4.00483      3.23048     33.26886        -0.000128     -0.004141     -0.000678
      2.00238      1.95133     33.88585         0.000269     -0.001846     -0.009078
      4.00482      0.66844     34.47734        -0.000200     -0.000426     -0.002416
      2.00240      4.09008     35.09167        -0.000021     -0.007932      0.000243
      4.00481      2.79358     35.68519         0.000100      0.003179      0.001916
      2.00240      1.53151     36.40328        -0.000017     -0.000195     -0.000632
      4.00482      0.19793     36.87364        -0.000015     -0.002663      0.000473
      2.00239      3.72974     37.50315         0.000122      0.000940     -0.005454
      4.00483      2.36366     37.98408        -0.000061      0.005068     -0.002705
 -----------------------------------------------------------------------------------
    total drift:                               -0.000371      0.001502      0.008144


--------------------------------------------------------------------------------------------------------



  FREE ENERGIE OF THE ION-ELECTRON SYSTEM (eV)
  ---------------------------------------------------
  free  energy   TOTEN  =      -326.55543437 eV

  energy  without entropy=     -326.52973272  energy(sigma->0) =     -326.54686716



--------------------------------------------------------------------------------------------------------


    POTLOK:  cpu time    0.0782: real time    0.0782


--------------------------------------------------------------------------------------------------------


 writing wavefunctions
     LOOP+:  cpu time  889.1571: real time  892.9962
    4ORBIT:  cpu time    0.0000: real time    0.0000



 total charge     

# of ion       s       p       d       tot
------------------------------------------
    1        0.473   0.300   6.201   6.975
    2        0.479   0.388   6.236   7.102
    3        0.498   0.482   6.259   7.239
    4        0.471   0.493   6.200   7.165
    5        0.490   0.540   6.269   7.299
    6        0.482   0.529   6.243   7.254
    7        0.486   0.533   6.251   7.270
    8        0.479   0.531   6.231   7.240
    9        0.486   0.539   6.239   7.264
   10        0.484   0.538   6.237   7.259
   11        0.486   0.539   6.239   7.264
   12        0.480   0.534   6.233   7.247
   13        0.488   0.537   6.245   7.271
   14        0.478   0.527   6.232   7.237
   15        0.491   0.534   6.263   7.288
   16        0.475   0.492   6.189   7.157
   17        0.511   0.536   6.288   7.335
   18        0.460   0.431   6.169   7.059
   19        0.492   0.425   6.210   7.127
   20        1.415   0.008   0.000   1.422
   21        0.479   0.397   6.167   7.044
   22        0.492   0.422   6.210   7.123
   23        0.459   0.430   6.169   7.057
   24        0.511   0.537   6.288   7.336
   25        0.475   0.493   6.190   7.158
   26        0.492   0.534   6.263   7.289
   27        0.479   0.526   6.232   7.237
   28        0.489   0.537   6.246   7.271
   29        0.481   0.535   6.235   7.251
   30        0.487   0.540   6.241   7.268
   31        0.484   0.539   6.238   7.261
   32        0.487   0.541   6.240   7.268
   33        0.486   0.541   6.238   7.264
   34        0.487   0.542   6.242   7.271
   35        0.479   0.532   6.232   7.243
   36        0.486   0.533   6.250   7.270
   37        0.482   0.530   6.245   7.257
   38        0.490   0.541   6.267   7.298
   39        0.471   0.493   6.200   7.165
   40        0.498   0.482   6.258   7.238
   41        0.480   0.390   6.237   7.106
   42        0.474   0.300   6.204   6.978
--------------------------------------------------
tot         21.253  20.349 255.526 297.128



 magnetization (x)

# of ion       s       p       d       tot
------------------------------------------
    1        0.008   0.004   2.851   2.863
    2        0.002  -0.003   2.642   2.641
    3       -0.012  -0.036   2.419   2.372
    4       -0.012  -0.052   2.559   2.496
    5       -0.016  -0.057   2.339   2.265
    6       -0.014  -0.058   2.386   2.314
    7       -0.015  -0.058   2.302   2.230
    8       -0.015  -0.061   2.350   2.275
    9       -0.014  -0.059   2.270   2.197
   10       -0.015  -0.059   2.267   2.193
   11       -0.014  -0.059   2.296   2.223
   12       -0.016  -0.060   2.325   2.249
   13       -0.014  -0.056   2.271   2.201
   14       -0.015  -0.057   2.325   2.253
   15       -0.013  -0.049   2.263   2.201
   16       -0.012  -0.054   2.571   2.506
   17       -0.020  -0.057   2.075   1.998
   18       -0.011  -0.040   2.683   2.632
   19       -0.010  -0.030   2.571   2.531
   20        0.002  -0.000   0.000   0.002
   21       -0.010  -0.031   2.663   2.621
   22       -0.010  -0.030   2.579   2.540
   23       -0.012  -0.039   2.691   2.640
   24       -0.021  -0.056   2.066   1.989
   25       -0.011  -0.054   2.569   2.503
   26       -0.012  -0.049   2.276   2.214
   27       -0.015  -0.056   2.344   2.273
   28       -0.013  -0.055   2.263   2.194
   29       -0.016  -0.060   2.289   2.213
   30       -0.014  -0.060   2.273   2.199
   31       -0.015  -0.059   2.278   2.203
   32       -0.014  -0.059   2.276   2.203
   33       -0.015  -0.059   2.278   2.204
   34       -0.014  -0.060   2.248   2.174
   35       -0.016  -0.061   2.343   2.267
   36       -0.014  -0.058   2.309   2.236
   37       -0.014  -0.058   2.381   2.310
   38       -0.016  -0.057   2.331   2.258
   39       -0.012  -0.052   2.559   2.495
   40       -0.011  -0.036   2.420   2.373
   41        0.001  -0.004   2.637   2.634
   42        0.008   0.003   2.843   2.854
--------------------------------------------------
tot         -0.492  -1.948  98.680  96.241


 total amount of memory used by VASP MPI-rank0   102329. kBytes
=======================================================================

   base      :      30000. kBytes
   nonlr-proj:      12095. kBytes
   fftplans  :       3521. kBytes
   grid      :       9349. kBytes
   one-center:        342. kBytes
   wavefun   :      47022. kBytes

  
  
 General timing and accounting informations for this job:
 ========================================================
  
                  Total CPU time used (sec):      945.570
                            User time (sec):      932.533
                          System time (sec):       13.037
                         Elapsed time (sec):      961.809
  
                   Maximum memory used (kb):      174508.
                   Average memory used (kb):           0.
  
                          Minor page faults:        35988
                          Major page faults:            0
                 Voluntary context switches:       173792
